<?xml version="1.0" encoding="UTF-8"?>

<!-- generated on 2025-11-10 17:33:40 by Eclipse SUMO sumo Version 1.20.0
<configuration xmlns:xsi="http://www.w3.org/2001/XMLSchema-instance" xsi:noNamespaceSchemaLocation="http://sumo.dlr.de/xsd/sumoConfiguration.xsd">

    <input>
        <net-file value="/Users/kashiisamutakeshi/vehicle-assistant-system/scenarios/its102/map_one/data/one_shelter_one_departure.net.xml"/>
        <additional-files value="/Users/kashiisamutakeshi/vehicle-assistant-system/scenarios/its102/map_one/data/one_shelter_one_departure.add.xml"/>
    </input>

    <output>
        <tripinfo-output value="tripinfo.xml"/>
    </output>

    <traci_server>
        <remote-port value="54266"/>
    </traci_server>

</configuration>
-->

<tripinfos xmlns:xsi="http://www.w3.org/2001/XMLSchema-instance" xsi:noNamespaceSchemaLocation="http://sumo.dlr.de/xsd/tripinfo_file.xsd">
</tripinfos>
 id="init_ShelterB_1_4" depart="20.00" departLane="E10_0" departPos="5.10" departSpeed="0.00" departDelay="0.00" arrival="165.00" arrivalLane="E16_0" arrivalPos="4.27" arrivalSpeed="7.00" duration="145.00" routeLength="994.30" waitingTime="0.00" waitingCount="0" stopTime="0.00" timeLoss="74.06" rerouteNo="0" devices="tripinfo_init_ShelterB_1_4" vType="DEFAULT_VEHTYPE" speedFactor="1.03" vaporized="traci"/><</tripinfos>
id="init_ShelterB_1_2" depart="10.00" departLane="E10_0" departPos="5.10" departSpeed="0.00" departDelay="0.00" arrival="155.00" arrivalLane="E16_0" arrivalPos="4.27" arrivalSpeed="7.00" duration="145.00" routeLength="994.30" waitingTime="0.00" waitingCount="0" stopTime="0.00" timeLoss="72.69" rerouteNo="0" devices="tripinfo_init_ShelterB_1_2" vType="DEFAULT_VEHTYPE" speedFactor="1.01" vaporized="traci"/>
</tripinfos>
