<?xml version="1.0" encoding="UTF-8"?>

<!-- generated on 2025-11-13 20:09:13 by Eclipse SUMO GUI Version 1.20.0
<configuration xmlns:xsi="http://www.w3.org/2001/XMLSchema-instance" xsi:noNamespaceSchemaLocation="http://sumo.dlr.de/xsd/sumoConfiguration.xsd">

    <input>
        <net-file value="/Users/kashiisamutakeshi/vehicle-assistant-system/scenarios/pervehicle/map_one/data/one_shelter_one_departure.net.xml"/>
        <additional-files value="/Users/kashiisamutakeshi/vehicle-assistant-system/scenarios/pervehicle/map_one/data/one_shelter_one_departure.add.xml"/>
    </input>

    <output>
        <tripinfo-output value="tripinfo.xml"/>
    </output>

    <traci_server>
        <remote-port value="57393"/>
    </traci_server>

</configuration>
-->

<tripinfos xmlns:xsi="http://www.w3.org/2001/XMLSchema-instance" xsi:noNamespaceSchemaLocation="http://sumo.dlr.de/xsd/tripinfo_file.xsd">
</tripinfos>
