<?xml version="1.0" encoding="UTF-8"?>

<!-- generated on 2025-11-17 00:55:13 by Eclipse SUMO sumo Version v1_23_1+0435-630512a
<sumoConfiguration xmlns:xsi="http://www.w3.org/2001/XMLSchema-instance" xsi:noNamespaceSchemaLocation="http://sumo.dlr.de/xsd/sumoConfiguration.xsd">

    <input>
        <net-file value="/home/katagi/vehicle-assistant-system/scenarios/pervehicle/map_one/data/one_shelter_one_departure.net.xml"/>
        <additional-files value="/home/katagi/vehicle-assistant-system/scenarios/pervehicle/map_one/data/one_shelter_one_departure.add.xml"/>
    </input>

    <output>
        <tripinfo-output value="tripinfo.xml"/>
    </output>

    <traci_server>
        <remote-port value="42043"/>
    </traci_server>

</sumoConfiguration>
-->

<tripinfos xmlns:xsi="http://www.w3.org/2001/XMLSchema-instance" xsi:noNamespaceSchemaLocation="http://sumo.dlr.de/xsd/tripinfo_file.xsd">
    <tripinfo id="init_ShelterB_1_76" depart="366.00" departLane="E13_0" departPos="5.10" departSpeed="0.00" departDelay="0.32" arrival="500.00" arrivalLane="E16_0" arrivalPos="171.32" arrivalSpeed="1.03" duration="134.00" routeLength="759.76" waitingTime="0.00" waitingCount="0" stopTime="0.00" timeLoss="79.49" rerouteNo="0" devices="tripinfo_init_ShelterB_1_76" vType="DEFAULT_VEHTYPE" speedFactor="1.03" vaporized="traci"/>
    <tripinfo id="init_ShelterB_1_83" depart="398.00" departLane="E13_0" departPos="5.10" departSpeed="0.00" departDelay="0.10" arrival="510.00" arrivalLane="E16_0" arrivalPos="130.49" arrivalSpeed="1.08" duration="112.00" routeLength="718.93" waitingTime="0.00" waitingCount="0" stopTime="0.00" timeLoss="56.94" rerouteNo="0" devices="tripinfo_init_ShelterB_1_83" vType="DEFAULT_VEHTYPE" speedFactor="0.97" vaporized="traci"/    <tripinfo id="init_ShelterB_1_89" depart="426.00" departLane="E13_0" departPos="5.10" departSpeed="0.00" departDelay="0.68" arrival="510.00" arrivalLane="E16_0" arrivalPos="64.47" arrivalSpeed="8.00" duration="84.00" routeLength="652.91" waitingTime="0.00" waitingCount="0" stopTime="0.00" timeLoss="36.48" rerouteNo="0" devices="tripinfo_init_ShelterB_1_89" vType="DEFAULT_VEHTYPE" speedFactor="1.02" vaporized="traci"/>
    <tripinfo id="init_ShelterB_1_87" depart="417.00" departLane="E13_0" departPos="5.10" departSpeed="0.00" departDelay="0.80" arrival="520.00" arrivalLane="E16_0" arrivalPos="115.16" arrivalSpeed="1.10" duration="103.00" routeLength="703.60" waitingTime="0.00" waitingCount="0" stopTime="0.00" timeLoss="52.89" rerouteNo="0" devices="tripinfo_init_ShelterB_1_87" vType="DEFAULT_VEHTYPE" speedFactor="1.04" vaporized="traci"/>
     <tripinfo id="init_ShelterB_1_96" depart="458.00" departLane="E13_0" departPos="5.10" departSpeed="0.00" departDelay="0.92" arrival="530.00" arrivalLane="E15_0" arrivalPos="162.72" arrivalSpeed="8.00" duration="72.00" routeLength="556.75" waitingTime="0.00" waitingCount="0" stopTime="0.00" timeLoss="30.78" rerouteNo="0" devices="tripinfo_init_ShelterB_1_96" vType="DEFAULT_VEHTYPE" speedFactor="1.01" vaporized="traci"       <tripinfo id="init_ShelterB_1_89" depart="426.00" departLane="E13_0" departPos="5.10" departSpeed="0.00" departDelay="0.68" arrival="540.00" arrivalLane="E16_0" arrivalPos="135.12" arrivalSpeed="0.99" duration="114.00" routeLength="723.56" waitingTime="0.00" waitingCount="0" stopTime="0.00" timeLoss="61.50" rerouteNo="0" devices="tripinfo_init_ShelterB_1_89" vType="DEFAULT_VEHTYPE" speedFactor="1.02" vaporized="traci"/>
    <tripinfo id="init_ShelterB_1_90" depart="430.00" departLane="E13_0" departPos="5.10" departSpeed="0.00" departDelay="0.13" arrival="540.00" arrivalLane="E16_0" arrivalPos="126.64" arrivalSpeed="1.00" duration="110.00" routeLength="715.08" waitingTime="0.00" waitingCount="0" stopTime="0.00" timeLoss="57.83" rerouteNo="0" devices="tripinfo_init_ShelterB_1_90" vType="DEFAULT_VEHTYPE" speedFactor="1.02" vaporized="traci     <tripinfo id="init_ShelterB_1_91" depart="435.00" departLane="E13_0" departPos="5.10" departSpeed="0.00" departDelay="0.58" arrival="560.00" arrivalLane="E16_0" arrivalPos="146.35" arrivalSpeed="1.00" duration="125.00" routeLength="734.79" waitingTime="0.00" waitingCount="0" stopTime="0.00" timeLoss="64.15" rerouteNo="0" devices="tripinfo_init_ShelterB_1_91" vType="DEFAULT_VEHTYPE" speedFactor="0.89" vaporized="traci"/>
    <tripinfo id="init_ShelterB_1_94" depart="449.00" departLane="E13_0" departPos="5.10" departSpeed="0.00" departDelay="0.97" arrival="560.00" arrivalLane="E16_0" arrivalPos="129.37" arrivalSpeed="0.97" duration="111.00" routeLength="717.81" waitingTime="0.00" waitingCount="0" stopTime="0.00" timeLoss="62.10" rerouteNo="0" devices="tripinfo_init_ShelterB_1_94" vType="DEFAULT_VEHTYPE" speedFactor="1.09" vaporized="tr        <tripinfo id="init_ShelterB_1_102" depart="485.00" departLane="E13_0" departPos="5.10" departSpeed="0.00" departDelay="0.88" arrival="590.00" arrivalLane="E16_0" arrivalPos="116.45" arrivalSpeed="1.00" duration="105.00" routeLength="704.89" waitingTime="0.00" waitingCount="0" stopTime="0.00" timeLoss="51.05" rerouteNo="0" devices="tripinfo_init_ShelterB_1_102" vType="DEFAULT_VEHTYPE" speedFactor="0.97" vaporized="traci"/>
    <tripinfo id="init_ShelterB_1_104" depart="494.00" departLane="E13_0" departPos="5.10" departSpeed="0.00" departDelay="0.92" arrival="600.00" arrivalLane="E16_0" arrivalPos="117.78" arrivalSpeed="0.97" duration="106.00" routeLength="706.22" waitingTime="0.00" waitingCount="0" stopTime="0.00" timeLoss="47.59" rerouteNo="0" devices="tripinfo_init_ShelterB_1_104" vType="DEFAULT_VEHTYPE" speedFactor="0.89" vaporized="traci"/>
    <tripinfo id="init_ShelterB_1_106" depart="503.00" departLane="E13_0" departPos="5.10" departSpeed="0.00" departDelay="0.97" arrival="600.00" arrivalLane="E16_0" arrivalPos="100.80" arrivalSpeed="0.97" duration="97.00" routeLength="689.24" waitingTime="0.00" waitingCount="0" stopTime="0.00" timeLoss="46.53" rerouteNo="0" devices="tripinfo_init_ShelterB_1_106" vType="DEFAULT_VEHTYPE" speedFactor="1.01" vaporized="traci"/>    <tripinfo id="init_ShelterB_1_102" depart="485.00" departLane="E13_0" departPos="5.10" departSpeed="0.00" departDelay="0.88" arrival="580.00" arrivalLane="E16_0" arrivalPos="115.11" arrivalSpeed="0.97" duration="95.00" routeLength="703.55" waitingTime="0.00" waitingCount="0" stopTime="0.00" timeLoss="41.15" rerouteNo="0" devices="tripinfo_init_ShelterB_1_102" vType="DEFAULT_VEHTYPE" speedFactor="0.97" vaporized="traci"/>
    <tripinfo id="init_ShelterB_1_112" depart="529.00" departLane="E13_0" departPos="5.10" departSpeed="0.00" departDelay="0.24" arrival="600.00" arrivalLane="E15_0" arrivalPos="155.87" arrivalSpeed="8.00" duration="71.00" routeLength="549.90" waitingTime="0.00" waitingCount="0" stopTime="0.00" timeLoss="33.43" rerouteNo="0" devices="tripinfo_init_ShelterB_1_112" vType="DEFAULT_VEHTYPE" speedFactor="1.10" vaporized="traci"/>
    <tripinfo id="init_ShelterB_1_108" depart="511.00" departLane="E13_0" departPos="5.10" departSpeed="0.00" departDelay="0.04" arrival="610.00" arrivalLane="E16_0" arrivalPos="119.02" arrivalSpeed="0.99" duration="99.00" routeLength="707.46" waitingTime="0.00" waitingCount="0" stopTime="0.00" timeLoss="49.64" rerouteNo="0" devices="tripinfo_init_ShelterB_1_108" vType="DEFAULT_VEHTYPE" speedFactor="1.06" vaporize    <tripi    <tripinfo id="init_ShelterB_1_110" depart="520.00" departLane="E13_0" departPos="5.10" departSpeed="0.00" departDelay="0.13" arrival="640.00" arrivalLane="E16_0" arrivalPos="148.26" arrivalSpeed="0.97" duration="120.00" routeLength="736.70" waitingTime="0.00" waitingCount="0" stopTime="0.00" timeLoss="61.30" rerouteNo="0" devices="tripinfo_init_ShelterB_1_110" vType="DEFAULT_VEHTYPE" speedFactor="0.93" vaporized="traci"        <tripinfo id="init_ShelterB_1_113" depart="534.00" departLane="E13_0" departPos="5.10" departSpeed="0.00" departDelay="0.80" arrival="620.00" arrivalLane="E16_0" arrivalPos="80.30" arrivalSpeed="8.00" duration="86.00" routeLength="668.74" waitingTime="0.00" waitingCount="0" stopTime="0.00" timeLoss="36.75" rerouteNo="0" devices="tripinfo_init_ShelterB_1_113" vType="DEFAULT_VEHTYPE" speedFactor="1.01" vaporized    <trip    <tripinfo id="init_ShelterB_1_119" depart="560.00" departLane="E13_0" departPos="5.10" departSpeed="0.00" departDelay="0.28" arrival="660.00" arrivalLane="E16_0" arrivalPos="108.42" arrivalSpeed="0.97" duration="100.00" routeLength="696.86" waitingTime="0.00" waitingCount="0" stopTime="0.00" timeLoss="51.62" rerouteNo="0" devices="tripinfo_init_ShelterB_1_119" vType="DEFAULT_VEHTYPE" speedFactor="1.07" vaporized="traci"/>
    <tripinfo id="init_ShelterA_1_327" depart="595.00" departLane="E21_0" departPos="5.10" departSpeed="0.00" departDelay="0.21" arrival="670.00" arrivalLane="E24_1" arrivalPos="85.50" arrivalSpeed="0.00" duration="75.00" routeLength="384.90" waitingTime="22.00" waitingCount="2" stopTime="0.00" timeLoss="44.88" rerouteNo="0" devices="tripinfo_init_ShelterA_1_327" vType="DEFAULT_VEHTYPE" speedFactor="0.95" vaporized="traci"/>
    <tripinfo id="init_ShelterA_1_328" depart="600.00" departLane="E21_0" departPos="5.10" departSpeed="0.00" departDelay="0.84" arrival="670.00" arrivalLane="E24_1" arrivalPos="78.00" arrivalSpeed="0.00" duration="70.00" routeLength="377.40" waitingTime="17.00" waitingCount="1" stopTime="0.00" timeLoss="41.95" rerouteNo="0" devices="tripinfo_init_ShelterA_1_328" vType="DEFAULT_VEHTYPE" speedFactor="1.00" vaporized="traci"/>
    <tripinfo id="init_ShelterB_1_115" depart="543.00" departLane="E13_0" departPos="5.10" departSpeed="0.00" departDelay="0.94" arrival="670.00" arrivalLane="E16_0" arrivalPos="152.01" arrivalSpeed="0.97" duration="127.00" routeLength="740.45" waitingTime="0.00" waitingCount="0" stopTime="0.00" timeLoss="67.65" rerouteNo="0" devices="tripinfo_init_ShelterB_1_115" vType="DEFAULT_VEHTYPE" speedFactor="0.92" vaporized="traci"/>
    <tripinfo id="init_ShelterB_1_122" depart="573.00" departLane="E13_0" departPos="5.10" departSpeed="0.00" departDelay="0.09" arrival="670.00" arrivalLane="E16_0" arrivalPos="101.15" arrivalSpeed="0.97" duration="97.00" routeLength="689.59" waitingTime="0.00" waitingCount="0" stopTime="0.00" timeLoss="47.33" rerouteNo="0" devices="tripinfo_init_ShelterB_1_122" vType="DEFAULT_VEHTYPE" speedFactor="1.03" vaporized="traci"/>
      <tripinfo id="init_ShelterB_1_133" depart="621.00" departLane="E13_0" departPos="5.10" departSpeed="0.00" departDelay="0.11" arrival="690.00" arrivalLane="E15_0" arrivalPos="139.08" arrivalSpeed="8.00" duration="69.00" routeLength="533.11" waitingTime="0.00" waitingCount="0" stopTime="0.00" timeLoss="30.47" rerouteNo="0" devices="tripinfo_init_ShelterB_1_133" vType="DEFAULT_VEHTYPE" speedFactor="1.04" vaporized    <tripinfo id="init_ShelterB_1_120" depart="565.00" departLane="E13_0" departPos="5.10" departSpeed="0.00" departDelay="0.88" arrival="700.00" arrivalLane="E16_0" arrivalPos="164.27" arrivalSpeed="0.99" duration="135.00" routeLength="752.71" waitingTime="0.00" waitingCount="0" stopTime="0.00" timeLoss="75.91" rerouteNo="0" devices="tripinfo_init_ShelterB_1_120" vType="DEFAULT_VEHTYPE" speedFactor="0.94" vaporized="traci    <tripinfo id="init_ShelterB_1_130" depart="608.00" departLane="E13_0" departPos="5.10" departSpeed="0.00" departDelay="0.14" arrival="720.00" arrivalLane="E16_0" arrivalPos="124.40" arrivalSpeed="0.97" duration="112.00" routeLength="712.84" waitingTime="0.00" waitingCount="0" stopTime="0.00" timeLoss="60.75" rerouteNo="0" devices="tripinfo_init_ShelterB_1_130" vType="DEFAULT_VEHTYPE" speedFactor="1.03" vaporized="traci"/>
    <tripinfo id="init_ShelterB_1_131" depart="613.00" departLane="E13_0" departPos="5.10" departSpeed="0.00" departDelay="0.79" arrival="720.00" arrivalLane="E16_0" arrivalPos="115.93" arrivalSpeed="0.97" duration="107.00" routeLength="704.37" waitingTime="0.00" waitingCount="0" stopTime="0.00" timeLoss="58.00" rerouteNo="0" devices="tripinfo_init_ShelterB_1_131" vType="DEFAULT_VEHTYPE" speedFactor="1.07" vaporized="traci"/>
    <tr    <tripinfo id="init_ShelterA_1_340" depart="652.00" departLane="E21_0" departPos="5.10" departSpeed="0.00" departDelay="0.89" arrival="730.00" arrivalLane="E24_1" arrivalPos="85.50" arrivalSpeed="0.00" duration="78.00" routeLength="384.90" waitingTime="27.00" waitingCount="1" stopTime="0.00" timeLoss="51.95" rerouteNo="0" devices="tripinfo_init_ShelterA_1_340" vType="DEFAULT_VEHTYPE" speedFactor="1.11" vaporized="    <tri    <tripinfo id="init_ShelterA_1_315" depart="543.00" departLane="E21_0" departPos="5.10" departSpeed="0.00" departDelay="0.94" arrival="700.00" arrivalLane="E6_0" arrivalPos="178.33" arrivalSpeed="0.97" duration="157.00" routeLength="974.09" waitingTime="0.00" waitingCount="0" stopTime="0.00" timeLoss="94.45" rerouteNo="0" devices="tripinfo_init_ShelterA_1_315" vType="DEFAULT_VEHTYPE" speedFactor="1.15" vaporized="t    <tri    <tripinfo id="init_ShelterB_1_141" depart="656.00" departLane="E13_0" departPos="5.10" departSpeed="0.00" departDelay="0.60" arrival="710.00" arrivalLane="E15_0" arrivalPos="20.73" arrivalSpeed="8.00" duration="54.00" routeLength="414.76" waitingTime="0.00" waitingCount="0" stopTime="0.00" timeLoss="26.82" rerouteNo="0" devices="tripinfo_init_ShelterB_1_141" vType="DEFAULT_VEHTYPE" speedFactor="1.16" vaporized="traci"/>
    <t    <tripinfo id="init_ShelterB_1_146" depart="677.00" departLane="E13_0" departPos="5.10" departSpeed="0.00" departDelay="0.19" arrival="750.00" arrivalLane="E15_0" arrivalPos="169.12" arrivalSpeed="8.00" duration="73.00" routeLength="563.15" waitingTime="0.00" waitingCount="0" stopTime="0.00" timeLoss="25.75" rerouteNo="0" devices="tripinfo_init_ShelterB_1_146" vType="DEFAULT_VEHTYPE" speedFactor="0.89" vaporized    <tripin    <tripinfo id="init_ShelterB_1_138" depart="643.00" departLane="E13_0" departPos="5.10" departSpeed="0.00" departDelay="0.50" arrival="760.00" arrivalLane="E16_0" arrivalPos="137.82" arrivalSpeed="0.97" duration="117.00" routeLength="726.26" waitingTime="0.00" waitingCount="0" stopTime="0.00" timeLoss="63.39" rerouteNo="0" devices="tripinfo_init_ShelterB_1_138" vType="DEFAULT_VEHTYPE" speedFactor="1.00" vaporiz    <tripinfo id="init_ShelterB_1_141" depart="656.00" departLane="E13_0" departPos="5.10" departSpeed="0.00" departDelay="0.60" arrival="770.00" arrivalLane="E16_0" arrivalPos="130.62" arrivalSpeed="0.97" duration="114.00" routeLength="719.06" waitingTime="0.00" waitingCount="0" stopTime="0.00" timeLoss="68.01" rerouteNo="0" devices="tripinfo_init_ShelterB_1_141" vType="DEFAULT_VEHTYPE" speedFactor="1.16" vaporized="traci"/>
    <tripinfo id="init_ShelterB_1_145" depart="673.00" departLane="E13_0" departPos="5.10" departSpeed="0.00" departDelay="0.46" arrival="770.00" arrivalLane="E16_0" arrivalPos="96.71" arrivalSpeed="0.98" duration="97.00" routeLength="685.15" waitingTime="0.00" waitingCount="0" stopTime="0.00" timeLoss="52.23" rerouteNo="0" devices="tripinfo_init_ShelterB_1_145" vType="DEFAULT_VEHTYPE" speedFactor="1.14" vaporized="traci"/>
    <tripinfo id="init_ShelterB_1_146" depart="677.00" departLane="E13_0" departPos="5.10" departSpeed="0.00" departDelay="0.19" arrival="770.00" arrivalLane="E16_0" arrivalPos="88.23" arrivalSpeed="0.97" duration="93.00" routeLength="676.67" waitingTime="0.00" waitingCount="0" stopTime="0.00" timeLoss="36.53" rerouteNo="0" devices="tripinfo_init_ShelterB_1_146" vType="DEFAULT_VEHTYPE" speedFactor="0.89" vaporized="traci"/>
    <tripinfo id="init_ShelterB_1_147" depart="682.00" departLane="E13_0" departPos="5.10" departSpeed="0.00" departDelay="0.93" arrival="770.00" arrivalLane="E16_0" arrivalPos="79.76" arrivalSpeed="0.97" duration="88.00" routeLength="668.20" waitingTime="0.00" waitingCount="0" stopTime="0.00" timeLoss="38.47" rerouteNo="0" devices="tripinfo_init_ShelterB_1_147" vType="DEFAULT_VEHTYPE" speedFactor="1.00" vaporized="traci"/>
    <tripinfo id="init_ShelterB_1_143" depart="664.00" departLane="E13_0" departPos="5.10" departSpeed="0.00" departDelay="0.02" arrival="770.00" arrivalLane="E16_0" arrivalPos="130.62" arrivalSpeed="0.97" duration="106.00" routeLength="719.06" waitingTime="0.00" waitingCount="0" stopTime="0.00" timeLoss="58.62" rerouteNo="0" devices="tripinfo_init_ShelterB_1_143" vType="DEFAULT_VEHTYPE" speedFactor="1.13" vaporized="traci"/      <tripinfo id="init_ShelterA_1_331" depart="613.00" departLane="E21_0" departPos="5.10" departSpeed="0.00" departDelay="0.79" arrival="780.00" arrivalLane="E6_0" arrivalPos="114.07" arrivalSpeed="1.40" duration="167.00" routeLength="909.83" waitingTime="27.00" waitingCount="2" stopTime="0.00" timeLoss="101.26" rerouteNo="0" devices="tripinfo_init_ShelterA_1_331" vType="DEFAULT_VEHTYPE" speedFactor="1.02" vaporized="trac    <tripinfo id="init_ShelterA_1_344" depart="669.00" departLane="E21_0" departPos="5.10" departSpeed="0.00" departDelay="0.74" arrival="800.00" arrivalLane="E6_0" arrivalPos="114.64" arrivalSpeed="1.57" duration="131.00" routeLength="910.40" waitingTime="0.00" waitingCount="0" stopTime="0.00" timeLoss="62.45" rerouteNo="0" devices="tripinfo_init_ShelterA_1_344" vType="DEFAULT_VEHTYPE" speedFactor="0.98" vaporized="traci"/>
    <tripinfo id="init_ShelterA_1_346" depart="677.00" departLane="E21_0" departPos="5.10" departSpeed="0.00" departDelay="0.19" arrival="800.00" arrivalLane="E6_0" arrivalPos="96.49" arrivalSpeed="1.77" duration="123.00" routeLength="892.25" waitingTime="0.00" waitingCount="0" stopTime="0.00" timeLoss="63.30" rerouteNo="0" devices="tripinfo_init_ShelterA_1_346" vType="DEFAULT_VEHTYPE" speedFactor="1.11" vaporized="traci"/>
    <tripinfo id="init_ShelterA_1_347" depart="682.00" departLane="E21_0" departPos="5.10" departSpeed="0.00" departDelay="0.93" arrival="800.00" arrivalLane="E6_0" arrivalPos="87.22" arrivalSpeed="1.70" duration="118.00" routeLength="882.98" waitingTime="0.00" waitingCount="0" stopTime="0.00" timeLoss="38.91" rerouteNo="0" devices="tripinfo_init_ShelterA_1_347" vType="DEFAULT_VEHTYPE" speedFactor="0.82" vaporized="traci"/>
    <tripinfo id="init_ShelterA_1_348" depart="686.00" departLane="E21_0" departPos="5.10" departSpeed="0.00" departDelay="0.66" arrival="800.00" arrivalLane="E6_0" arrivalPos="78.02" arrivalSpeed="1.57" duration="114.00" routeLength="873.78" waitingTime="0.00" waitingCount="0" stopTime="0.00" timeLoss="56.90" rerouteNo="0" devices="tripinfo_init_ShelterA_1_348" vType="DEFAULT_VEHTYPE" speedFactor="1.13" vaporized="traci"/>
    <tripinfo id="init_ShelterB_1_156" depart="720.00" departLane="E13_0" departPos="5.10" departSpeed="0.00" departDelay="0.75" arrival="800.00" arrivalLane="E16_0" arrivalPos="34.51" arrivalSpeed="8.00" duration="80.00" routeLength="622.95" waitingTime="0.00" waitingCount="0" stopTime="0.00" timeLoss="40.43" rerouteNo="0" devices="tripinfo_init_ShelterB_1_156" vType="DEFAULT_VEHTYPE" speedFactor="1.18" vaporized="traci"/>
    <tripinfo id="init_ShelterB_1_158" depart="728.00" departLane="E13_0" departPos="5.10" departSpeed="0.00" departDelay="0.33" arrival="800.00" arrivalLane="E15_0" arrivalPos="161.41" arrivalSpeed="8.00" duration="72.00" routeLength="555.44" waitingTime="0.00" waitingCount="0" stopTime="0.00" timeLoss="26.51" rerouteNo="0" devices="tripinfo_init_ShelterB_1_158" vType="DEFAULT_VEHTYPE" speedFactor="0.91" vaporized="traci"/>
    <tripinfo id="init_ShelterB_1_150" depart="694.00" departLane="E13_0" departPos="5.10" departSpeed="0.00" departDelay="0.16" arrival="810.00" arrivalLane="E16_0" arrivalPos="127.09" arrivalSpeed="0.99" duration="116.00" routeLength="715.53" waitingTime="0.00" waitingCount="0" stopTime="0.00" timeLoss="60.98" rerouteNo="0" devices="tripinfo_init_ShelterB_1_150" vType="DEFAULT_VEHTYPE" speedFactor="0.96" vaporized="traci"/>
    <tripinfo id="init    <tripinfo id="init_ShelterA_1_346" depart="677.00" departLane="E21_0" departPos="5.10" departSpeed="0.00" departDelay="0.19" arrival="810.00" arrivalLane="E6_0" arrivalPos="81.94" arrivalSpeed="1.57" duration="133.00" routeLength="877.70" waitingTime="14.00" waitingCount="1" stopTime="0.00" timeLoss="74.27" rerouteNo="0" devices="tripinfo_init_ShelterA_1_346" vType="DEFAULT_VEHTYPE" speedFactor="1.11    <tripinfo id="init_ShelterB_1_157" depart="724.00" departLane="E13_0" departPos="5.10" departSpeed="0.00" departDelay="0.54" arrival="820.00" arrivalLane="E16_0" arrivalPos="119.82" arrivalSpeed="0.99" duration="96.00" routeLength="708.26" waitingTime="0.00" waitingCount="0" stopTime="0.00" timeLoss="47.20" rerouteNo="0" devices="tripinfo_init_ShelterB_1_157" vType="DEFAULT_VEHTYPE" speedFactor="1.08" vaporized="traci"/>
    <tripinfo id="ini    <tripinfo id="init_ShelterA_1_355" depart="716.00" departLane="E21_0" departPos="5.10" departSpeed="0.00" departDelay="0.98" arrival="820.00" arrivalLane="E4_0" arrivalPos="59.04" arrivalSpeed="8.00" duration="104.00" routeLength="654.60" waitingTime="16.00" waitingCount="2" stopTime="0.00" timeLoss="56.79" rerouteNo="0" devices="tripinfo_init_ShelterA_1_355" vType="DEFAULT_VEHTYPE" speedFactor="1.03"    <tripinfo id="init_ShelterA_1_360" depart="737.00" departLane="E21_0" departPos="5.10" departSpeed="0.00" departDelay="0.92" arrival="830.00" arrivalLane="E4_0" arrivalPos="51.04" arrivalSpeed="8.00" duration="93.00" routeLength="646.60" waitingTime="8.00" waitingCount="1" stopTime="0.00" timeLoss="52.21" rerouteNo="0" devices="tripinfo_init_ShelterA_1_360" vType="DEFAULT_VEHTYPE" speedFactor="1.19" vaporized="traci"/>
    <tripinfo id="init_ShelterB_1_165" depart="758.00" departLane="E13_0" departPos="5.10" departSpeed="0.00" departDelay="0.99" arrival="830.00" arrivalLane="E15_0" arrivalPos="161.48" arrivalSpeed="8.00" duration="72.00" routeLength="555.51" waitingTime="0.00" waitingCount="0" stopTime="0.00" timeLoss="26.73" rerouteNo="0" devices="tripinfo_init_ShelterB_1_165" vType="DEFAULT_VEHTYPE" speedFactor="0.91" vaporized="traci"/>
    <tripinfo id="init_ShelterA_1_365" depart="758.00" departLane="E21_0" departPos="5.10" departSpeed="0.00" departDelay="0.99" arrival="840.00" arrivalLane="E4_0" arrivalPos="42.94" arrivalSpeed="8.00" duration="82.00" routeLength="638.50" waitingTime="0.00" waitingCount="0" stopTime="0.00" timeLoss="39.27" rerouteNo="0" devices="tripinfo_init_ShelterA_1_365" vType="DEFAULT_VEHTYPE" speedFactor="1.12" vaporized="traci"/>
        <tripinfo id="init_ShelterB_1_168" depart="770.00" departLane="E13_0" departPos="5.10" departSpeed="0.00" departDelay="0.49" arrival="850.00" arrivalLane="E16_0" arrivalPos="31.97" arrivalSpeed="8.00" duration="80.00" routeLength="620.41" waitingTime="0.00" waitingCount="0" stopTime="0.00" timeLoss="33.07" rerouteNo="0" devices="tripinfo_init_ShelterB_1_168" vType="DEFAULT_VEHTYPE" speedFactor="0.98" vaporized="traci"/>
    <tripinfo id="init_ShelterA_1_368" depart="770.00" departLane="E21_0" departPos="5.10" departSpeed="0.00" departDelay="0.49" arrival="860.00" arrivalLane="E24_1" arrivalPos="85.50" arrivalSpeed="0.00" duration="90.00" routeLength="384.90" waitingTime="37.00" waitingCount="2" stopTime="0.00" timeLoss="64.70" rerouteNo="0" devices="tripinfo_init_ShelterA_1_368" vType="DEFAULT_VEHTYPE" speedFactor="1.14" vaporized="traci"/>
    <tripinfo id="init_ShelterA_1_369" depart="774.00" departLane="E21_0" departPos="5.10" departSpeed="0.00" departDelay="0.34" arrival="860.00" arrivalLane="E24_1" arrivalPos="78.00" arrivalSpeed="0.00" duration="86.00" routeLength="377.40" waitingTime="34.00" waitingCount="2" stopTime="0.00" timeLoss="58.25" rerouteNo="0" devices="tripinfo_init_ShelterA_1_369" vType="DEFAULT_VEHTYPE" speedFactor="1.02" vaporized="traci"/>
    <tripinfo id="init_ShelterB_1_172" depart="787.00" departLane="E13_0" departPos="5.10" departSpeed="0.00" departDelay="0.90" arrival="860.00" arrivalLane="E15_0" arrivalPos="169.20" arrivalSpeed="8.00" duration="73.00" routeLength="563.23" waitingTime="0.00" waitingCount="0" stopTime="0.00" timeLoss="26.06" rerouteNo="0" devices="tripinfo_init_ShelterB_1_172" vType="DEFAULT_VEHTYPE" speedFactor="0.89" vaporized="traci"/>
    <tripinfo id="init_ShelterA_1_357" depart="724.00" departLane="E21_0" departPos="5.10" departSpeed="0.00" departDelay="0.54" arrival="870.00" arrivalLane="E6_0" arrivalPos="149.51" arrivalSpeed="1.23" duration="146.00" routeLength="945.27" waitingTime="0.00" waitingCount="0" stopTime="0.00" timeLoss="72.71" rerouteNo="0" devices="tripinfo_init_ShelterA_1_357" vType="DEFAULT_VEHTYPE" speedFactor="0.95" vaporized="traci"/>
    <tripinfo id="init_ShelterA_1_361" depart="741.00" departLane="E21_0" departPos="5.10" departSpeed="0.00" departDelay="0.72" arrival="870.00" arrivalLane="E6_0" arrivalPos="53.19" arrivalSpeed="1.23" duration="129.00" routeLength="848.95" waitingTime="15.00" waitingCount="1" stopTime="0.00" timeLoss="62.92" rerouteNo="0" devices="tripinfo_init_ShelterA_1_361" vType="DEFAULT_VEHTYPE" speedFactor="0.95" vaporized="traci"/>
    <tripinfo id="init_ShelterA_1_362" depart="745.00" departLane="E21_0" departPos="5.10" departSpeed="0.00" departDelay="0.53" arrival="870.00" arrivalLane="E6_0" arrivalPos="44.47" arrivalSpeed="1.23" duration="125.00" routeLength="840.23" waitingTime="13.00" waitingCount="1" stopTime="0.00" timeLoss="73.09" rerouteNo="0" devices="tripinfo_init_ShelterA_1_362" vType="DEFAULT_VEHTYPE" speedFactor="1.20" vaporized="traci"/    <tripinfo id="init_ShelterA_1_356" depart="720.00" departLane="E21_0" departPos="5.10" departSpeed="0.00" departDelay="0.75" arrival="870.00" arrivalLane="E6_0" arrivalPos="69.98" arrivalSpeed="1.33" duration="150.00" routeLength="865.74" waitingTime="32.00" waitingCount="2" stopTime="0.00" timeLoss="83.38" rerouteNo="0" devices="tripinfo_init_ShelterA_1_356" vType="DEFAULT_VEHTYPE" speedFactor="0.96" vaporized="traci"/>
    <tripinfo id="init_ShelterA_1_358" depart="728.00" departLane="E21_0" departPos="5.10" departSpeed="0.00" departDelay="0.33" arrival="870.00" arrivalLane="E6_0" arrivalPos="96.23" arrivalSpeed="1.24" duration="142.00" routeLength="891.99" waitingTime="15.00" waitingCount="1" stopTime="0.00" timeLoss="81.14" rerouteNo="0" devices="tripinfo_init_ShelterA_1_358" vType="DEFAULT_VEHTYPE" speedFactor="1.08" vaporized="traci"/>
    <tripinfo id="init_ShelterA_1_363" depart="749.00" departLane="E21_0" departPos="5.10" departSpeed="0.00" departDelay="0.35" arrival="870.00" arrivalLane="E6_0" arrivalPos="87.49" arrivalSpeed="1.25" duration="121.00" routeLength="883.25" waitingTime="0.00" waitingCount="0" stopTime="0.00" timeLoss="48.93" rerouteNo="0" devices="tripinfo_init_ShelterA_1_363" vType="DEFAULT_VEHTYPE" speedFactor="0.90" vaporized="traci"/>
    <tripinfo id="init_ShelterA_1_364" depart="753.00" departLane="E21_0" departPos="5.10" departSpeed="0.00" departDelay="0.17" arrival="870.00" arrivalLane="E6_0" arrivalPos="78.75" arrivalSpeed="1.27" duration="117.00" routeLength="874.51" waitingTime="0.00" waitingCount="0" stopTime="0.00" timeLoss="51.92" rerouteNo="0" devices="tripinfo_init_ShelterA_1_364" vType="DEFAULT_VEHTYPE" speedFactor="0.99" vaporized="traci"/>
    <tripinfo id="init_ShelterA_1_379" depart="815.00" departLane="E21_0" departPos="5.10" departSpeed="0.00" departDelay="0.06" arrival="890.00" arrivalLane="E24_1" arrivalPos="85.50" arrivalSpeed="0.00" duration="75.00" routeLength="384.90" waitingTime="22.00" waitingCount="2" stopTime="0.00" timeLoss="41.15" rerouteNo="0" devices="tripinfo_init_ShelterA_1_379" vType="DEFAULT_VEHTYPE" speedFactor="0.84" vaporized="traci"/>
    <tripinfo id="init_ShelterA_1_376" depart="803.00" departLane="E21_0" departPos="5.10" departSpeed="0.00" departDelay="0.39" arrival="900.00" arrivalLane="E5_0" arrivalPos="46.41" arrivalSpeed="8.00" duration="97.00" routeLength="742.07" waitingTime="0.00" waitingCount="0" stopTime="0.00" timeLoss="46.64" rerouteNo="0" devices="tripinfo_init_ShelterA_1_376" vType="DEFAULT_VEHTYPE" speedFactor="1.10" vaporized="traci"/>
    <tripinfo id="init_ShelterA_1_381" depart="824.00" departLane="E21_0" departPos="5.10" departSpeed="0.00" departDelay="0.86" arrival="900.00" arrivalLane="E24_1" arrivalPos="85.50" arrivalSpeed="0.00" duration="76.00" routeLength="384.90" waitingTime="21.00" waitingCount="3" stopTime="0.00" timeLoss="46.16" rerouteNo="0" devices="tripinfo_init_ShelterA_1_381" vType="DEFAULT_VEHTYPE" speedFactor="0.96" vaporized="traci"/>
    <tripinfo id="init_ShelterA_1_382" depart="828.00" departLane="E21_0" departPos="5.10" departSpeed="0.00" departDelay="0.77" arrival="900.00" arrivalLane="E24_1" arrivalPos="78.00" arrivalSpeed="0.00" duration="72.00" routeLength="377.40" waitingTime="18.00" waitingCount="3" stopTime="0.00" timeLoss="39.04" rerouteNo="0" devices="tripinfo_init_ShelterA_1_382" vType="DEFAULT_VEHTYPE" speedFactor="0.85" vaporized="traci"/>
    <tripinfo id="init_ShelterA_1_386" depart="844.00" departLane="E21_0" departPos="5.10" departSpeed="0.00" departDelay="0.46" arrival="910.00" arrivalLane="E24_1" arrivalPos="73.10" arrivalSpeed="2.60" duration="66.00" routeLength="372.50" waitingTime="12.00" waitingCount="3" stopTime="0.00" timeLoss="38.02" rerouteNo="0" devices="tripinfo_init_ShelterA_1_386" vType="DEFAULT_VEHTYPE" speedFactor="0.99" vaporized="traci"/>
    <tripinfo id="init_ShelterB_1_180" depart="820.00" departLane="E13_0" departPos="5.10" departSpeed="0.00" departDelay="0.96" arrival="910.00" arrivalLane="E16_0" arrivalPos="88.67" arrivalSpeed="0.91" duration="90.00" routeLength="677.11" waitingTime="0.00" waitingCount="0" stopTime="0.00" timeLoss="44.14" rerouteNo="0" devices="tripinfo_init_ShelterB_1_180" vType="DEFAULT_VEHTYPE" speedFactor="1.10" vaporized="traci"/>