<?xml version="1.0" encoding="UTF-8"?>

<!-- generated on 2025-11-16 20:59:43 by Eclipse SUMO sumo Version 1.20.0
<configuration xmlns:xsi="http://www.w3.org/2001/XMLSchema-instance" xsi:noNamespaceSchemaLocation="http://sumo.dlr.de/xsd/sumoConfiguration.xsd">

    <input>
        <net-file value="/Users/kashiisamutakeshi/vehicle-assistant-system/scenarios/pervehicle/map_one/data/one_shelter_one_departure.net.xml"/>
        <additional-files value="/Users/kashiisamutakeshi/vehicle-assistant-system/scenarios/pervehicle/map_one/data/one_shelter_one_departure.add.xml"/>
    </input>

    <output>
        <tripinfo-output value="tripinfo.xml"/>
    </output>

    <traci_server>
        <remote-port value="51054"/>
    </traci_server>

</configuration>
-->

<tripinfos xmlns:xsi="http://www.w3.org/2001/XMLSchema-instance" xsi:noNamespaceSchemaLocation="http://sumo.dlr.de/xsd/tripinfo_file.xsd">
    <tripinfo id="init_ShelterB_1_63" depart="306.00" departLane="E13_0" departPos="5.10" departSpeed="0.00" departDelay="0.81" arrival="410.00" arrivalLane="E16_0" arrivalPos="120.94" arrivalSpeed="0.93" duration="104.00" routeLength="709.38" waitingTime="0.00" waitingCount="0" stopTime="0.00" timeLoss="50.19" rerouteNo="0" devices="tripinfo_init_ShelterB_1_63" vType="DEFAULT_VEHTYPE" speedFactor="0.99" vaporized="traci"/>
    <tripinfo id="init_ShelterB_1_66" depart="320.00" departLane="E13_0" departPos="5.10" departSpeed="0.00" departDelay="0.78" arrival="410.00" arrivalLane="E16_0" arrivalPos="95.67" arrivalSpeed="1.97" duration="90.00" routeLength="684.11" waitingTime="0.00" waitingCount="0" stopTime="0.00" timeLoss="33.62" rerouteNo="0" devices="tripinfo_init_ShelterB_1_66" vType="DEFAULT_VEHTYPE" speedFactor="0.91" vaporized="traci"/>
    <tripinfo id="init_ShelterB_1_69" depart="334.00" departLane="E13_0" departPos="5.10" departSpeed="0.00" departDelay="0.79" arrival="420.00" arrivalLane="E16_0" arrivalPos="76.52" arrivalSpeed="8.00" duration="86.00" routeLength="664.96" waitingTime="0.00" waitingCount="0" stopTime="0.00" timeLoss="37.63" rerouteNo="0" devices="tripinfo_init_ShelterB_1_69" vType="DEFAULT_VEHTYPE" speedFactor="1.02" vaporized="traci"/>
    <tripinfo id="init_ShelterB_1_70" depart="338.00" departLane="E13_0" departPos="5.10" departSpeed="0.00" departDelay="0.14" arrival="420.00" arrivalLane="E16_0" arrivalPos="44.54" arrivalSpeed="8.00" duration="82.00" routeLength="632.98" waitingTime="0.00" waitingCount="0" stopTime="0.00" timeLoss="35.92" rerouteNo="0" devices="tripinfo_init_ShelterB_1_70" vType="DEFAULT_VEHTYPE" speedFactor="1.02" vaporized="traci"/>
    <tripinfo id="init_ShelterB_1_74" depart="357.00" departLane="E13_0" departPos="5.10" departSpeed="0.00" departDelay="0.57" arrival="430.00" arrivalLane="E15_0" arrivalPos="163.84" arrivalSpeed="8.00" duration="73.00" routeLength="557.87" waitingTime="0.00" waitingCount="0" stopTime="0.00" timeLoss="28.89" rerouteNo="0" devices="tripinfo_init_ShelterB_1_74" vType="DEFAULT_VEHTYPE" speedFactor="0.96" vaporized="traci"/>
    <tripinfo id="init_ShelterB_1_67" depart="324.00" departLane="E13_0" departPos="5.10" departSpeed="0.00" departDelay="0.11" arrival="440.00" arrivalLane="E16_0" arrivalPos="131.03" arrivalSpeed="0.88" duration="116.00" routeLength="719.47" waitingTime="0.00" waitingCount="0" stopTime="0.00" timeLoss="57.30" rerouteNo="0" devices="tripinfo_init_ShelterB_1_67" vType="DEFAULT_VEHTYPE" speedFactor="0.91" vaporized="traci"/>
    <tripinfo id="init_ShelterB_1_71" depart="343.00" departLane="E13_0" departPos="5.10" departSpeed="0.00" departDelay="0.49" arrival="440.00" arrivalLane="E16_0" arrivalPos="114.23" arrivalSpeed="0.89" duration="97.00" routeLength="702.67" waitingTime="0.00" waitingCount="0" stopTime="0.00" timeLoss="42.94" rerouteNo="0" devices="tripinfo_init_ShelterB_1_71" vType="DEFAULT_VEHTYPE" speedFactor="0.97" vaporized="traci"/>
    <tripinfo id="init_ShelterB_1_76" depart="366.00" departLane="E13_0" departPos="5.10" departSpeed="0.00" departDelay="0.32" arrival="450.00" arrivalLane="E16_0" arrivalPos="60.72" arrivalSpeed="8.00" duration="84.00" routeLength="649.16" waitingTime="0.00" waitingCount="0" stopTime="0.00" timeLoss="37.20" rerouteNo="0" devices="tripinfo_init_ShelterB_1_76" vType="DEFAULT_VEHTYPE" speedFactor="1.03" vaporized="traci"/>
    <tripinfo id="init_ShelterB_1_84" depart="403.00" departLane="E13_0" departPos="5.10" departSpeed="0.00" departDelay="0.52" arrival="470.00" arrivalLane="E15_0" arrivalPos="121.39" arrivalSpeed="8.00" duration="67.00" routeLength="515.42" waitingTime="0.00" waitingCount="0" stopTime="0.00" timeLoss="33.14" rerouteNo="0" devices="tripinfo_init_ShelterB_1_84" vType="DEFAULT_VEHTYPE" speedFactor="1.15" vaporized="traci"/>
    <tripinfo id="init_ShelterB_1_79" depart="380.00" departLane="E13_0" departPos="5.10" departSpeed="0.00" departDelay="0.48" arrival="480.00" arrivalLane="E16_0" arrivalPos="115.67" arrivalSpeed="0.86" duration="100.00" routeLength="704.11" waitingTime="0.00" waitingCount="0" stopTime="0.00" timeLoss="51.83" rerouteNo="0" devices="tripinfo_init_ShelterB_1_79" vType="DEFAULT_VEHTYPE" speedFactor="1.09" vaporized="traci"/>
    <tripinfo id="init_ShelterB_1_81" depart="389.00" departLane="E13_0" departPos="5.10" departSpeed="0.00" departDelay="0.28" arrival="480.00" arrivalLane="E16_0" arrivalPos="98.95" arrivalSpeed="0.86" duration="91.00" routeLength="687.39" waitingTime="0.00" waitingCount="0" stopTime="0.00" timeLoss="39.36" rerouteNo="0" devices="tripinfo_init_ShelterB_1_81" vType="DEFAULT_VEHTYPE" speedFactor="1.00" vaporized="traci"/>
    <tripinfo id="init_ShelterB_1_82" depart="394.00" departLane="E13_0" departPos="5.10" departSpeed="0.00" departDelay="0.69" arrival="490.00" arrivalLane="E16_0" arrivalPos="115.90" arrivalSpeed="0.86" duration="96.00" routeLength="704.34" waitingTime="0.00" waitingCount="0" stopTime="0.00" timeLoss="44.60" rerouteNo="0" devices="tripinfo_init_ShelterB_1_82" vType="DEFAULT_VEHTYPE" speedFactor="1.02" vaporized="traci"/>
    <tripinfo id="init_ShelterB_1_85" depart="408.00" departLane="E13_0" departPos="5.10" departSpeed="0.00" departDelay="0.94" arrival="490.00" arrivalLane="E16_0" arrivalPos="41.97" arrivalSpeed="8.00" duration="82.00" routeLength="630.41" waitingTime="0.00" waitingCount="0" stopTime="0.00" timeLoss="33.43" rerouteNo="0" devices="tripinfo_init_ShelterB_1_85" vType="DEFAULT_VEHTYPE" speedFactor="0.98" vaporized="traci"/>
    <tripinfo id="init_ShelterB_1_91" depart="435.00" departLane="E13_0" departPos="5.10" departSpeed="0.00" departDelay="0.58" arrival="490.00" arrivalLane="E15_0" arrivalPos="18.74" arrivalSpeed="7.45" duration="55.00" routeLength="412.77" waitingTime="0.00" waitingCount="0" stopTime="0.00" timeLoss="19.62" rerouteNo="0" devices="tripinfo_init_ShelterB_1_91" vType="DEFAULT_VEHTYPE" speedFactor="0.89" vaporized="traci"/>
    <tripinfo id="init_ShelterB_1_89" depart="426.00" departLane="E13_0" departPos="5.10" departSpeed="0.00" departDelay="0.68" arrival="500.00" arrivalLane="E15_0" arrivalPos="174.93" arrivalSpeed="8.00" duration="74.00" routeLength="568.96" waitingTime="0.00" waitingCount="0" stopTime="0.00" timeLoss="32.39" rerouteNo="0" devices="tripinfo_init_ShelterB_1_89" vType="DEFAULT_VEHTYPE" speedFactor="1.02" vaporized="traci"/>
    <tripinfo id="init_ShelterB_1_86" depart="412.00" departLane="E13_0" departPos="5.10" departSpeed="0.00" departDelay="0.37" arrival="510.00" arrivalLane="E16_0" arrivalPos="124.73" arrivalSpeed="0.86" duration="98.00" routeLength="713.17" waitingTime="0.00" waitingCount="0" stopTime="0.00" timeLoss="45.21" rerouteNo="0" devices="tripinfo_init_ShelterB_1_86" vType="DEFAULT_VEHTYPE" speedFactor="1.00" vaporized="traci"/>
    <tripinfo id="init_ShelterB_1_100" depart="476.00" departLane="E13_0" departPos="5.10" departSpeed="0.00" departDelay="0.87" arrival="530.00" arrivalLane="E15_0" arrivalPos="16.04" arrivalSpeed="7.73" duration="54.00" routeLength="410.07" waitingTime="0.00" waitingCount="0" stopTime="0.00" timeLoss="24.75" rerouteNo="0" devices="tripinfo_init_ShelterB_1_100" vType="DEFAULT_VEHTYPE" speedFactor="1.06" vaporized="traci"/>
    <tripinfo id="init_ShelterB_1_105" depart="498.00" departLane="E13_0" departPos="5.10" departSpeed="0.00" departDelay="0.44" arrival="550.00" arrivalLane="E15_0" arrivalPos="0.94" arrivalSpeed="6.98" duration="52.00" routeLength="394.97" waitingTime="0.00" waitingCount="0" stopTime="0.00" timeLoss="23.96" rerouteNo="0" devices="tripinfo_init_ShelterB_1_105" vType="DEFAULT_VEHTYPE" speedFactor="1.07" vaporized="traci"/>
    <tripinfo id="init_ShelterB_1_92" depart="439.00" departLane="E13_0" departPos="5.10" departSpeed="0.00" departDelay="0.04" arrival="560.00" arrivalLane="E16_0" arrivalPos="142.16" arrivalSpeed="0.85" duration="121.00" routeLength="730.60" waitingTime="0.00" waitingCount="0" stopTime="0.00" timeLoss="55.84" rerouteNo="0" devices="tripinfo_init_ShelterB_1_92" vType="DEFAULT_VEHTYPE" speedFactor="0.83" vaporized="traci"/>
    <tripinfo id="init_ShelterB_1_94" depart="449.00" departLane="E13_0" departPos="5.10" departSpeed="0.00" departDelay="0.97" arrival="560.00" arrivalLane="E16_0" arrivalPos="125.46" arrivalSpeed="0.85" duration="111.00" routeLength="713.90" waitingTime="0.00" waitingCount="0" stopTime="0.00" timeLoss="62.36" rerouteNo="0" devices="tripinfo_init_ShelterB_1_94" vType="DEFAULT_VEHTYPE" speedFactor="1.09" vaporized="traci"/>
    <tripinfo id="init_ShelterB_1_95" depart="453.00" departLane="E13_0" departPos="5.10" departSpeed="0.00" departDelay="0.44" arrival="560.00" arrivalLane="E16_0" arrivalPos="117.12" arrivalSpeed="0.86" duration="107.00" routeLength="705.56" waitingTime="0.00" waitingCount="0" stopTime="0.00" timeLoss="57.40" rerouteNo="0" devices="tripinfo_init_ShelterB_1_95" vType="DEFAULT_VEHTYPE" speedFactor="1.06" vaporized="traci"/>
    <tripinfo id="init_ShelterB_1_96" depart="458.00" departLane="E13_0" departPos="5.10" departSpeed="0.00" departDelay="0.92" arrival="560.00" arrivalLane="E16_0" arrivalPos="108.76" arrivalSpeed="0.85" duration="102.00" routeLength="697.20" waitingTime="0.00" waitingCount="0" stopTime="0.00" timeLoss="50.77" rerouteNo="0" devices="tripinfo_init_ShelterB_1_96" vType="DEFAULT_VEHTYPE" speedFactor="1.01" vaporized="traci"/>
    <tripinfo id="init_ShelterB_1_97" depart="462.00" departLane="E13_0" departPos="5.10" departSpeed="0.00" departDelay="0.40" arrival="560.00" arrivalLane="E16_0" arrivalPos="100.40" arrivalSpeed="0.85" duration="98.00" routeLength="688.84" waitingTime="0.00" waitingCount="0" stopTime="0.00" timeLoss="41.23" rerouteNo="0" devices="tripinfo_init_ShelterB_1_97" vType="DEFAULT_VEHTYPE" speedFactor="0.91" vaporized="traci"/>
    <tripinfo id="init_ShelterB_1_98" depart="467.00" departLane="E13_0" departPos="5.10" departSpeed="0.00" departDelay="0.88" arrival="560.00" arrivalLane="E16_0" arrivalPos="92.05" arrivalSpeed="0.85" duration="93.00" routeLength="680.49" waitingTime="0.00" waitingCount="0" stopTime="0.00" timeLoss="47.79" rerouteNo="0" devices="tripinfo_init_ShelterB_1_98" vType="DEFAULT_VEHTYPE" speedFactor="1.12" vaporized="traci"/>
    <tripinfo id="init_ShelterB_1_99" depart="471.00" departLane="E13_0" departPos="5.10" departSpeed="0.00" departDelay="0.38" arrival="560.00" arrivalLane="E16_0" arrivalPos="83.71" arrivalSpeed="0.83" duration="89.00" routeLength="672.15" waitingTime="0.00" waitingCount="0" stopTime="0.00" timeLoss="43.37" rerouteNo="0" devices="tripinfo_init_ShelterB_1_99" vType="DEFAULT_VEHTYPE" speedFactor="1.10" vaporized="traci"/>
    <tripinfo id="init_ShelterB_1_101" depart="480.00" departLane="E13_0" departPos="5.10" departSpeed="0.00" departDelay="0.38" arrival="570.00" arrivalLane="E16_0" arrivalPos="105.47" arrivalSpeed="8.00" duration="90.00" routeLength="693.91" waitingTime="0.00" waitingCount="0" stopTime="0.00" timeLoss="35.72" rerouteNo="0" devices="tripinfo_init_ShelterB_1_101" vType="DEFAULT_VEHTYPE" speedFactor="0.96" vaporized="traci"/>
    <tripinfo id="init_ShelterB_1_109" depart="516.00" departLane="E13_0" departPos="5.10" departSpeed="0.00" departDelay="0.58" arrival="590.00" arrivalLane="E15_0" arrivalPos="171.96" arrivalSpeed="8.00" duration="74.00" routeLength="565.99" waitingTime="0.00" waitingCount="0" stopTime="0.00" timeLoss="29.47" rerouteNo="0" devices="tripinfo_init_ShelterB_1_109" vType="DEFAULT_VEHTYPE" speedFactor="0.96" vaporized="traci"/>
    <tripinfo id="init_ShelterB_1_112" depart="529.00" departLane="E13_0" departPos="5.10" departSpeed="0.00" departDelay="0.24" arrival="600.00" arrivalLane="E15_0" arrivalPos="152.42" arrivalSpeed="8.00" duration="71.00" routeLength="546.45" waitingTime="0.00" waitingCount="0" stopTime="0.00" timeLoss="33.66" rerouteNo="0" devices="tripinfo_init_ShelterB_1_112" vType="DEFAULT_VEHTYPE" speedFactor="1.10" vaporized="traci"/>
    <tripinfo id="init_ShelterB_1_113" depart="534.00" departLane="E13_0" departPos="5.10" departSpeed="0.00" departDelay="0.80" arrival="600.00" arrivalLane="E15_0" arrivalPos="110.68" arrivalSpeed="8.00" duration="66.00" routeLength="504.71" waitingTime="0.00" waitingCount="0" stopTime="0.00" timeLoss="28.46" rerouteNo="0" devices="tripinfo_init_ShelterB_1_113" vType="DEFAULT_VEHTYPE" speedFactor="1.01" vaporized="traci"/>
    <tripinfo id="init_ShelterB_1_116" depart="547.00" departLane="E13_0" departPos="5.10" departSpeed="0.00" departDelay="0.52" arrival="610.00" arrivalLane="E15_0" arrivalPos="89.96" arrivalSpeed="8.00" duration="63.00" routeLength="483.99" waitingTime="0.00" waitingCount="0" stopTime="0.00" timeLoss="31.87" rerouteNo="0" devices="tripinfo_init_ShelterB_1_116" vType="DEFAULT_VEHTYPE" speedFactor="1.18" vaporized="traci"/>
    <tripinfo id="init_ShelterB_1_115" depart="543.00" departLane="E13_0" departPos="5.10" departSpeed="0.00" departDelay="0.94" arrival="670.00" arrivalLane="E16_0" arrivalPos="151.10" arrivalSpeed="0.83" duration="127.00" routeLength="739.54" waitingTime="0.00" waitingCount="0" stopTime="0.00" timeLoss="67.19" rerouteNo="0" devices="tripinfo_init_ShelterB_1_115" vType="DEFAULT_VEHTYPE" speedFactor="0.92" vaporized="traci"/>
    <tripinfo id="init_ShelterB_1_117" depart="551.00" departLane="E13_0" departPos="5.10" departSpeed="0.00" departDelay="0.10" arrival="670.00" arrivalLane="E16_0" arrivalPos="142.76" arrivalSpeed="0.83" duration="119.00" routeLength="731.20" waitingTime="0.00" waitingCount="0" stopTime="0.00" timeLoss="65.05" rerouteNo="0" devices="tripinfo_init_ShelterB_1_117" vType="DEFAULT_VEHTYPE" speedFactor="1.00" vaporized="traci"/>
    <tripinfo id="init_ShelterB_1_121" depart="569.00" departLane="E13_0" departPos="5.10" departSpeed="0.00" departDelay="0.48" arrival="670.00" arrivalLane="E16_0" arrivalPos="109.40" arrivalSpeed="0.84" duration="101.00" routeLength="697.84" waitingTime="0.00" waitingCount="0" stopTime="0.00" timeLoss="53.93" rerouteNo="0" devices="tripinfo_init_ShelterB_1_121" vType="DEFAULT_VEHTYPE" speedFactor="1.10" vaporized="traci"/>
    <tripinfo id="init_ShelterB_1_122" depart="573.00" departLane="E13_0" departPos="5.10" departSpeed="0.00" departDelay="0.09" arrival="670.00" arrivalLane="E16_0" arrivalPos="101.06" arrivalSpeed="0.83" duration="97.00" routeLength="689.50" waitingTime="0.00" waitingCount="0" stopTime="0.00" timeLoss="47.34" rerouteNo="0" devices="tripinfo_init_ShelterB_1_122" vType="DEFAULT_VEHTYPE" speedFactor="1.03" vaporized="traci"/>
    <tripinfo id="init_ShelterB_1_123" depart="578.00" departLane="E13_0" departPos="5.10" departSpeed="0.00" departDelay="0.70" arrival="670.00" arrivalLane="E16_0" arrivalPos="92.73" arrivalSpeed="0.83" duration="92.00" routeLength="681.17" waitingTime="0.00" waitingCount="0" stopTime="0.00" timeLoss="42.55" rerouteNo="0" devices="tripinfo_init_ShelterB_1_123" vType="DEFAULT_VEHTYPE" speedFactor="1.02" vaporized="traci"/>
    <tripinfo id="init_ShelterB_1_128" depart="600.00" departLane="E13_0" departPos="5.10" departSpeed="0.00" departDelay="0.84" arrival="710.00" arrivalLane="E16_0" arrivalPos="126.13" arrivalSpeed="0.84" duration="110.00" routeLength="714.57" waitingTime="0.00" waitingCount="0" stopTime="0.00" timeLoss="62.47" rerouteNo="0" devices="tripinfo_init_ShelterB_1_128" vType="DEFAULT_VEHTYPE" speedFactor="1.12" vaporized="traci"/>
    <tripinfo id="init_ShelterB_1_129" depart="604.00" departLane="E13_0" departPos="5.10" departSpeed="0.00" departDelay="0.49" arrival="710.00" arrivalLane="E16_0" arrivalPos="117.78" arrivalSpeed="0.84" duration="106.00" routeLength="706.22" waitingTime="0.00" waitingCount="0" stopTime="0.00" timeLoss="54.04" rerouteNo="0" devices="tripinfo_init_ShelterB_1_129" vType="DEFAULT_VEHTYPE" speedFactor="1.01" vaporized="traci"/>
    <tripinfo id="init_ShelterB_1_130" depart="608.00" departLane="E13_0" departPos="5.10" departSpeed="0.00" departDelay="0.14" arrival="710.00" arrivalLane="E16_0" arrivalPos="109.44" arrivalSpeed="0.83" duration="102.00" routeLength="697.88" waitingTime="0.00" waitingCount="0" stopTime="0.00" timeLoss="51.79" rerouteNo="0" devices="tripinfo_init_ShelterB_1_130" vType="DEFAULT_VEHTYPE" speedFactor="1.03" vaporized="traci"/>
    <tripinfo id="init_ShelterB_1_132" depart="617.00" departLane="E13_0" departPos="5.10" departSpeed="0.00" departDelay="0.45" arrival="710.00" arrivalLane="E16_0" arrivalPos="92.78" arrivalSpeed="0.83" duration="93.00" routeLength="681.22" waitingTime="0.00" waitingCount="0" stopTime="0.00" timeLoss="39.83" rerouteNo="0" devices="tripinfo_init_ShelterB_1_132" vType="DEFAULT_VEHTYPE" speedFactor="0.96" vaporized="traci"/>
    <tripinfo id="init_ShelterB_1_134" depart="626.00" departLane="E13_0" departPos="5.10" departSpeed="0.00" departDelay="0.78" arrival="720.00" arrivalLane="E16_0" arrivalPos="117.78" arrivalSpeed="0.84" duration="94.00" routeLength="706.22" waitingTime="0.00" waitingCount="0" stopTime="0.00" timeLoss="51.00" rerouteNo="0" devices="tripinfo_init_ShelterB_1_134" vType="DEFAULT_VEHTYPE" speedFactor="1.23" vaporized="traci"/>
    <tripinfo id="init_ShelterB_1_136" depart="634.00" departLane="E13_0" departPos="5.10" departSpeed="0.00" departDelay="0.13" arrival="720.00" arrivalLane="E16_0" arrivalPos="78.42" arrivalSpeed="8.00" duration="86.00" routeLength="666.86" waitingTime="0.00" waitingCount="0" stopTime="0.00" timeLoss="41.58" rerouteNo="0" devices="tripinfo_init_ShelterB_1_136" vType="DEFAULT_VEHTYPE" speedFactor="1.12" vaporized="traci"/>
    <tripinfo id="init_ShelterB_1_140" depart="652.00" departLane="E13_0" departPos="5.10" departSpeed="0.00" departDelay="0.89" arrival="750.00" arrivalLane="E16_0" arrivalPos="109.36" arrivalSpeed="0.83" duration="98.00" routeLength="697.80" waitingTime="0.00" waitingCount="0" stopTime="0.00" timeLoss="51.36" rerouteNo="0" devices="tripinfo_init_ShelterB_1_140" vType="DEFAULT_VEHTYPE" speedFactor="1.11" vaporized="traci"/>
    <tripinfo id="init_ShelterB_1_142" depart="660.00" departLane="E13_0" departPos="5.10" departSpeed="0.00" departDelay="0.31" arrival="750.00" arrivalLane="E16_0" arrivalPos="92.71" arrivalSpeed="0.83" duration="90.00" routeLength="681.15" waitingTime="0.00" waitingCount="0" stopTime="0.00" timeLoss="35.57" rerouteNo="0" devices="tripinfo_init_ShelterB_1_142" vType="DEFAULT_VEHTYPE" speedFactor="0.94" vaporized="traci"/>
    <tripinfo id="init_ShelterB_1_148" depart="686.00" departLane="E13_0" departPos="5.10" departSpeed="0.00" departDelay="0.66" arrival="750.00" arrivalLane="E15_0" arrivalPos="92.15" arrivalSpeed="8.00" duration="64.00" routeLength="486.18" waitingTime="0.00" waitingCount="0" stopTime="0.00" timeLoss="25.73" rerouteNo="0" devices="tripinfo_init_ShelterB_1_148" vType="DEFAULT_VEHTYPE" speedFactor="0.97" vaporized="traci"/>
    <tripinfo id="init_ShelterB_1_146" depart="677.00" departLane="E13_0" departPos="5.10" departSpeed="0.00" departDelay="0.19" arrival="760.00" arrivalLane="E16_0" arrivalPos="47.65" arrivalSpeed="8.00" duration="83.00" routeLength="636.09" waitingTime="0.00" waitingCount="0" stopTime="0.00" timeLoss="29.30" rerouteNo="0" devices="tripinfo_init_ShelterB_1_146" vType="DEFAULT_VEHTYPE" speedFactor="0.89" vaporized="traci"/>
    <tripinfo id="init_ShelterB_1_137" depart="639.00" departLane="E13_0" departPos="5.10" departSpeed="0.00" departDelay="0.81" arrival="770.00" arrivalLane="E16_0" arrivalPos="151.02" arrivalSpeed="0.82" duration="131.00" routeLength="739.46" waitingTime="0.00" waitingCount="0" stopTime="0.00" timeLoss="77.03" rerouteNo="0" devices="tripinfo_init_ShelterB_1_137" vType="DEFAULT_VEHTYPE" speedFactor="1.02" vaporized="traci"/>
    <tripinfo id="init_ShelterB_1_141" depart="656.00" departLane="E13_0" departPos="5.10" departSpeed="0.00" departDelay="0.60" arrival="770.00" arrivalLane="E16_0" arrivalPos="126.03" arrivalSpeed="0.84" duration="114.00" routeLength="714.47" waitingTime="0.00" waitingCount="0" stopTime="0.00" timeLoss="68.29" rerouteNo="0" devices="tripinfo_init_ShelterB_1_141" vType="DEFAULT_VEHTYPE" speedFactor="1.16" vaporized="traci"/>
    <tripinfo id="init_ShelterB_1_143" depart="664.00" departLane="E13_0" departPos="5.10" departSpeed="0.00" departDelay="0.02" arrival="770.00" arrivalLane="E16_0" arrivalPos="117.69" arrivalSpeed="0.84" duration="106.00" routeLength="706.13" waitingTime="0.00" waitingCount="0" stopTime="0.00" timeLoss="59.44" rerouteNo="0" devices="tripinfo_init_ShelterB_1_143" vType="DEFAULT_VEHTYPE" speedFactor="1.13" vaporized="traci"/>
    <tripinfo id="init_ShelterB_1_144" depart="669.00" departLane="E13_0" departPos="5.10" departSpeed="0.00" departDelay="0.74" arrival="770.00" arrivalLane="E16_0" arrivalPos="109.35" arrivalSpeed="0.83" duration="101.00" routeLength="697.79" waitingTime="0.00" waitingCount="0" stopTime="0.00" timeLoss="30.46" rerouteNo="0" devices="tripinfo_init_ShelterB_1_144" vType="DEFAULT_VEHTYPE" speedFactor="0.73" vaporized="traci"/>
    <tripinfo id="init_ShelterB_1_154" depart="711.00" departLane="E13_0" departPos="5.10" departSpeed="0.00" departDelay="0.20" arrival="790.00" arrivalLane="E16_0" arrivalPos="21.35" arrivalSpeed="8.00" duration="79.00" routeLength="609.79" waitingTime="0.00" waitingCount="0" stopTime="0.00" timeLoss="36.23" rerouteNo="0" devices="tripinfo_init_ShelterB_1_154" vType="DEFAULT_VEHTYPE" speedFactor="1.06" vaporized="traci"/>
    <tripinfo id="init_ShelterB_1_156" depart="720.00" departLane="E13_0" departPos="5.10" departSpeed="0.00" departDelay="0.75" arrival="790.00" arrivalLane="E15_0" arrivalPos="146.00" arrivalSpeed="8.00" duration="70.00" routeLength="540.03" waitingTime="0.00" waitingCount="0" stopTime="0.00" timeLoss="35.49" rerouteNo="0" devices="tripinfo_init_ShelterB_1_156" vType="DEFAULT_VEHTYPE" speedFactor="1.18" vaporized="traci"/>
    <tripinfo id="init_ShelterB_1_149" depart="690.00" departLane="E13_0" departPos="5.10" departSpeed="0.00" departDelay="0.41" arrival="800.00" arrivalLane="E16_0" arrivalPos="142.68" arrivalSpeed="0.83" duration="110.00" routeLength="731.12" waitingTime="0.00" waitingCount="0" stopTime="0.00" timeLoss="57.85" rerouteNo="0" devices="tripinfo_init_ShelterB_1_149" vType="DEFAULT_VEHTYPE" speedFactor="1.04" vaporized="traci"/>
    <tripinfo id="init_ShelterB_1_150" depart="694.00" departLane="E13_0" departPos="5.10" departSpeed="0.00" departDelay="0.16" arrival="800.00" arrivalLane="E16_0" arrivalPos="134.35" arrivalSpeed="0.84" duration="106.00" routeLength="722.79" waitingTime="0.00" waitingCount="0" stopTime="0.00" timeLoss="49.90" rerouteNo="0" devices="tripinfo_init_ShelterB_1_150" vType="DEFAULT_VEHTYPE" speedFactor="0.96" vaporized="traci"/>
    <tripinfo id="init_ShelterB_1_152" depart="703.00" departLane="E13_0" departPos="5.10" departSpeed="0.00" departDelay="0.67" arrival="800.00" arrivalLane="E16_0" arrivalPos="117.66" arrivalSpeed="0.83" duration="97.00" routeLength="706.10" waitingTime="0.00" waitingCount="0" stopTime="0.00" timeLoss="48.02" rerouteNo="0" devices="tripinfo_init_ShelterB_1_152" vType="DEFAULT_VEHTYPE" speedFactor="1.07" vaporized="traci"/>
    <tripinfo id="init_ShelterB_1_153" depart="707.00" departLane="E13_0" departPos="5.10" departSpeed="0.00" departDelay="0.43" arrival="800.00" arrivalLane="E16_0" arrivalPos="109.33" arrivalSpeed="0.83" duration="93.00" routeLength="697.77" waitingTime="0.00" waitingCount="0" stopTime="0.00" timeLoss="36.75" rerouteNo="0" devices="tripinfo_init_ShelterB_1_153" vType="DEFAULT_VEHTYPE" speedFactor="0.93" vaporized="traci"/>
    <tripinfo id="init_ShelterB_1_162" depart="745.00" departLane="E13_0" departPos="5.10" departSpeed="0.00" departDelay="0.53" arrival="810.00" arrivalLane="E15_0" arrivalPos="100.82" arrivalSpeed="8.00" duration="65.00" routeLength="494.85" waitingTime="0.00" waitingCount="0" stopTime="0.00" timeLoss="27.05" rerouteNo="0" devices="tripinfo_init_ShelterB_1_162" vType="DEFAULT_VEHTYPE" speedFactor="0.99" vaporized="traci"/>
    <tripinfo id="init_ShelterB_1_163" depart="749.00" departLane="E13_0" departPos="5.10" departSpeed="0.00" departDelay="0.35" arrival="820.00" arrivalLane="E15_0" arrivalPos="152.98" arrivalSpeed="8.00" duration="71.00" routeLength="547.01" waitingTime="0.00" waitingCount="0" stopTime="0.00" timeLoss="34.52" rerouteNo="0" devices="tripinfo_init_ShelterB_1_163" vType="DEFAULT_VEHTYPE" speedFactor="1.13" vaporized="traci"/>
    <tripinfo id="init_ShelterB_1_174" depart="795.00" departLane="E13_0" departPos="5.10" departSpeed="0.00" departDelay="0.63" arrival="850.00" arrivalLane="E15_0" arrivalPos="20.31" arrivalSpeed="7.56" duration="55.00" routeLength="414.34" waitingTime="0.00" waitingCount="0" stopTime="0.00" timeLoss="21.73" rerouteNo="0" devices="tripinfo_init_ShelterB_1_174" vType="DEFAULT_VEHTYPE" speedFactor="0.96" vaporized="traci"/>
    <tripinfo id="init_ShelterB_1_165" depart="758.00" departLane="E13_0" departPos="5.10" departSpeed="0.00" departDelay="0.99" arrival="870.00" arrivalLane="E16_0" arrivalPos="134.19" arrivalSpeed="0.83" duration="112.00" routeLength="722.63" waitingTime="0.00" waitingCount="0" stopTime="0.00" timeLoss="53.04" rerouteNo="0" devices="tripinfo_init_ShelterB_1_165" vType="DEFAULT_VEHTYPE" speedFactor="0.91" vaporized="traci"/>
    <tripinfo id="init_ShelterB_1_168" depart="770.00" departLane="E13_0" departPos="5.10" departSpeed="0.00" departDelay="0.49" arrival="870.00" arrivalLane="E16_0" arrivalPos="109.20" arrivalSpeed="0.82" duration="100.00" routeLength="697.64" waitingTime="0.00" waitingCount="0" stopTime="0.00" timeLoss="46.89" rerouteNo="0" devices="tripinfo_init_ShelterB_1_168" vType="DEFAULT_VEHTYPE" speedFactor="0.98" vaporized="traci"/>
    <tripinfo id="init_ShelterB_1_166" depart="762.00" departLane="E13_0" departPos="5.10" departSpeed="0.00" departDelay="0.82" arrival="880.00" arrivalLane="E16_0" arrivalPos="142.47" arrivalSpeed="0.83" duration="118.00" routeLength="730.91" waitingTime="0.00" waitingCount="0" stopTime="0.00" timeLoss="64.08" rerouteNo="0" devices="tripinfo_init_ShelterB_1_166" vType="DEFAULT_VEHTYPE" speedFactor="1.00" vaporized="traci"/>
    <tripinfo id="init_ShelterB_1_170" depart="778.00" departLane="E13_0" departPos="5.10" departSpeed="0.00" departDelay="0.19" arrival="880.00" arrivalLane="E16_0" arrivalPos="117.48" arrivalSpeed="0.83" duration="102.00" routeLength="705.92" waitingTime="0.00" waitingCount="0" stopTime="0.00" timeLoss="53.71" rerouteNo="0" devices="tripinfo_init_ShelterB_1_170" vType="DEFAULT_VEHTYPE" speedFactor="1.09" vaporized="traci"/>
    <tripinfo id="init_ShelterB_1_171" depart="782.00" departLane="E13_0" departPos="5.10" departSpeed="0.00" departDelay="0.04" arrival="880.00" arrivalLane="E16_0" arrivalPos="109.15" arrivalSpeed="0.83" duration="98.00" routeLength="697.59" waitingTime="0.00" waitingCount="0" stopTime="0.00" timeLoss="39.90" rerouteNo="0" devices="tripinfo_init_ShelterB_1_171" vType="DEFAULT_VEHTYPE" speedFactor="0.90" vaporized="traci"/>
    <tripinfo id="init_ShelterB_1_172" depart="787.00" departLane="E13_0" departPos="5.10" departSpeed="0.00" departDelay="0.90" arrival="880.00" arrivalLane="E16_0" arrivalPos="100.82" arrivalSpeed="0.84" duration="93.00" routeLength="689.26" waitingTime="0.00" waitingCount="0" stopTime="0.00" timeLoss="35.36" rerouteNo="0" devices="tripinfo_init_ShelterB_1_172" vType="DEFAULT_VEHTYPE" speedFactor="0.89" vaporized="traci"/>
    <tripinfo id="init_ShelterB_1_173" depart="791.00" departLane="E13_0" departPos="5.10" departSpeed="0.00" departDelay="0.76" arrival="880.00" arrivalLane="E16_0" arrivalPos="92.48" arrivalSpeed="0.98" duration="89.00" routeLength="680.92" waitingTime="0.00" waitingCount="0" stopTime="0.00" timeLoss="44.54" rerouteNo="0" devices="tripinfo_init_ShelterB_1_173" vType="DEFAULT_VEHTYPE" speedFactor="1.14" vaporized="traci"/>
    <tripinfo id="init_ShelterB_1_179" depart="815.00" departLane="E13_0" departPos="5.10" departSpeed="0.00" departDelay="0.06" arrival="890.00" arrivalLane="E15_0" arrivalPos="183.76" arrivalSpeed="8.00" duration="75.00" routeLength="577.79" waitingTime="0.00" waitingCount="0" stopTime="0.00" timeLoss="34.39" rerouteNo="0" devices="tripinfo_init_ShelterB_1_179" vType="DEFAULT_VEHTYPE" speedFactor="1.06" vaporized="traci"/>
    <tripinfo id="init_ShelterB_1_181" depart="824.00" departLane="E13_0" departPos="5.10" departSpeed="0.00" departDelay="0.86" arrival="940.00" arrivalLane="E16_0" arrivalPos="133.87" arrivalSpeed="0.83" duration="116.00" routeLength="722.31" waitingTime="0.00" waitingCount="0" stopTime="0.00" timeLoss="63.79" rerouteNo="0" devices="tripinfo_init_ShelterB_1_181" vType="DEFAULT_VEHTYPE" speedFactor="1.03" vaporized="traci"/>