<?xml version="1.0" encoding="UTF-8"?>

<!-- generated on 2025-11-16 20:33:35 by Eclipse SUMO sumo Version 1.20.0
<configuration xmlns:xsi="http://www.w3.org/2001/XMLSchema-instance" xsi:noNamespaceSchemaLocation="http://sumo.dlr.de/xsd/sumoConfiguration.xsd">

    <input>
        <net-file value="/Users/kashiisamutakeshi/vehicle-assistant-system/scenarios/pervehicle/map_one/data/one_shelter_one_departure.net.xml"/>
        <additional-files value="/Users/kashiisamutakeshi/vehicle-assistant-system/scenarios/pervehicle/map_one/data/one_shelter_one_departure.add.xml"/>
    </input>

    <output>
        <tripinfo-output value="tripinfo.xml"/>
    </output>

    <traci_server>
        <remote-port value="50848"/>
    </traci_server>

</configuration>
-->

<tripinfos xmlns:xsi="http://www.w3.org/2001/XMLSchema-instance" xsi:noNamespaceSchemaLocation="http://sumo.dlr.de/xsd/tripinfo_file.xsd">
    <tripinfo id="init_ShelterB_1_62" depart="301.00" departLane="E13_0" departPos="5.10" departSpeed="0.00" departDelay="0.50" arrival="400.00" arrivalLane="E16_0" arrivalPos="120.17" arrivalSpeed="0.93" duration="99.00" routeLength="708.61" waitingTime="0.00" waitingCount="0" stopTime="0.00" timeLoss="47.25" rerouteNo="0" devices="tripinfo_init_ShelterB_1_62" vType="DEFAULT_VEHTYPE" speedFactor="1.02" vaporized="traci"/>
    <tripinfo id="init_ShelterB_1_69" depart="334.00" departLane="E13_0" departPos="5.10" departSpeed="0.00" departDelay="0.79" arrival="430.00" arrivalLane="E16_0" arrivalPos="96.96" arrivalSpeed="0.89" duration="96.00" routeLength="685.40" waitingTime="0.00" waitingCount="0" stopTime="0.00" timeLoss="46.19" rerouteNo="0" devices="tripinfo_init_ShelterB_1_69" vType="DEFAULT_VEHTYPE" speedFactor="1.02" vaporized="traci"/>
    <tripinfo id="init_ShelterB_1_70" depart="338.00" departLane="E13_0" departPos="5.10" departSpeed="0.00" departDelay="0.14" arrival="430.00" arrivalLane="E16_0" arrivalPos="88.58" arrivalSpeed="0.90" duration="92.00" routeLength="677.02" waitingTime="0.00" waitingCount="0" stopTime="0.00" timeLoss="42.82" rerouteNo="0" devices="tripinfo_init_ShelterB_1_70" vType="DEFAULT_VEHTYPE" speedFactor="1.02" vaporized="traci"/>
    <tripinfo id="init_ShelterB_1_71" depart="343.00" departLane="E13_0" departPos="5.10" departSpeed="0.00" departDelay="0.49" arrival="440.00" arrivalLane="E16_0" arrivalPos="105.84" arrivalSpeed="0.87" duration="97.00" routeLength="694.28" waitingTime="0.00" waitingCount="0" stopTime="0.00" timeLoss="43.56" rerouteNo="0" devices="tripinfo_init_ShelterB_1_71" vType="DEFAULT_VEHTYPE" speedFactor="0.97" vaporized="traci"/>
    <tripinfo id="init_ShelterB_1_72" depart="348.00" departLane="E13_0" departPos="5.10" departSpeed="0.00" departDelay="0.84" arrival="440.00" arrivalLane="E16_0" arrivalPos="97.47" arrivalSpeed="0.87" duration="92.00" routeLength="685.91" waitingTime="0.00" waitingCount="0" stopTime="0.00" timeLoss="37.41" rerouteNo="0" devices="tripinfo_init_ShelterB_1_72" vType="DEFAULT_VEHTYPE" speedFactor="0.94" vaporized="traci"/>
    <tripinfo id="init_ShelterB_1_74" depart="357.00" departLane="E13_0" departPos="5.10" departSpeed="0.00" departDelay="0.57" arrival="440.00" arrivalLane="E16_0" arrivalPos="49.43" arrivalSpeed="8.00" duration="83.00" routeLength="637.87" waitingTime="0.00" waitingCount="0" stopTime="0.00" timeLoss="32.86" rerouteNo="0" devices="tripinfo_init_ShelterB_1_74" vType="DEFAULT_VEHTYPE" speedFactor="0.96" vaporized="traci"/>
    <tripinfo id="init_ShelterB_1_78" depart="375.00" departLane="E13_0" departPos="5.10" departSpeed="0.00" departDelay="0.09" arrival="450.00" arrivalLane="E15_0" arrivalPos="182.64" arrivalSpeed="8.00" duration="75.00" routeLength="576.67" waitingTime="0.00" waitingCount="0" stopTime="0.00" timeLoss="32.25" rerouteNo="0" devices="tripinfo_init_ShelterB_1_78" vType="DEFAULT_VEHTYPE" speedFactor="1.01" vaporized="traci"/>
    <tripinfo id="init_ShelterB_1_79" depart="380.00" departLane="E13_0" departPos="5.10" departSpeed="0.00" departDelay="0.48" arrival="450.00" arrivalLane="E15_0" arrivalPos="144.20" arrivalSpeed="8.00" duration="70.00" routeLength="538.23" waitingTime="0.00" waitingCount="0" stopTime="0.00" timeLoss="32.82" rerouteNo="0" devices="tripinfo_init_ShelterB_1_79" vType="DEFAULT_VEHTYPE" speedFactor="1.09" vaporized="traci"/>
    <tripinfo id="init_ShelterB_1_68" depart="329.00" departLane="E13_0" departPos="5.10" departSpeed="0.00" departDelay="0.45" arrival="460.00" arrivalLane="E16_0" arrivalPos="131.84" arrivalSpeed="0.86" duration="131.00" routeLength="720.28" waitingTime="0.00" waitingCount="0" stopTime="0.00" timeLoss="79.61" rerouteNo="0" devices="tripinfo_init_ShelterB_1_68" vType="DEFAULT_VEHTYPE" speedFactor="1.04" vaporized="traci"/>
    <tripinfo id="init_ShelterB_1_73" depart="352.00" departLane="E13_0" departPos="5.10" departSpeed="0.00" departDelay="0.21" arrival="460.00" arrivalLane="E16_0" arrivalPos="123.48" arrivalSpeed="0.88" duration="108.00" routeLength="711.92" waitingTime="0.00" waitingCount="0" stopTime="0.00" timeLoss="57.92" rerouteNo="0" devices="tripinfo_init_ShelterB_1_73" vType="DEFAULT_VEHTYPE" speedFactor="1.06" vaporized="traci"/>
    <tripinfo id="init_ShelterB_1_75" depart="362.00" departLane="E13_0" departPos="5.10" departSpeed="0.00" departDelay="0.95" arrival="460.00" arrivalLane="E16_0" arrivalPos="115.10" arrivalSpeed="0.89" duration="98.00" routeLength="703.54" waitingTime="0.00" waitingCount="0" stopTime="0.00" timeLoss="44.51" rerouteNo="0" devices="tripinfo_init_ShelterB_1_75" vType="DEFAULT_VEHTYPE" speedFactor="0.98" vaporized="traci"/>
    <tripinfo id="init_ShelterB_1_76" depart="366.00" departLane="E13_0" departPos="5.10" departSpeed="0.00" departDelay="0.32" arrival="460.00" arrivalLane="E16_0" arrivalPos="106.71" arrivalSpeed="0.86" duration="94.00" routeLength="695.15" waitingTime="0.00" waitingCount="0" stopTime="0.00" timeLoss="44.00" rerouteNo="0" devices="tripinfo_init_ShelterB_1_76" vType="DEFAULT_VEHTYPE" speedFactor="1.03" vaporized="traci"/>
    <tripinfo id="init_ShelterB_1_86" depart="412.00" departLane="E13_0" departPos="5.10" departSpeed="0.00" departDelay="0.37" arrival="510.00" arrivalLane="E16_0" arrivalPos="116.37" arrivalSpeed="0.86" duration="98.00" routeLength="704.81" waitingTime="0.00" waitingCount="0" stopTime="0.00" timeLoss="45.81" rerouteNo="0" devices="tripinfo_init_ShelterB_1_86" vType="DEFAULT_VEHTYPE" speedFactor="1.00" vaporized="traci"/>
    <tripinfo id="init_ShelterB_1_92" depart="439.00" departLane="E13_0" departPos="5.10" departSpeed="0.00" departDelay="0.04" arrival="530.00" arrivalLane="E16_0" arrivalPos="91.64" arrivalSpeed="0.85" duration="91.00" routeLength="680.08" waitingTime="0.00" waitingCount="0" stopTime="0.00" timeLoss="30.20" rerouteNo="0" devices="tripinfo_init_ShelterB_1_92" vType="DEFAULT_VEHTYPE" speedFactor="0.83" vaporized="traci"/>
    <tripinfo id="init_ShelterB_1_100" depart="476.00" departLane="E13_0" departPos="5.10" departSpeed="0.00" departDelay="0.87" arrival="540.00" arrivalLane="E15_0" arrivalPos="95.77" arrivalSpeed="8.00" duration="64.00" routeLength="489.80" waitingTime="0.00" waitingCount="0" stopTime="0.00" timeLoss="29.36" rerouteNo="0" devices="tripinfo_init_ShelterB_1_100" vType="DEFAULT_VEHTYPE" speedFactor="1.06" vaporized="traci"/>
    <tripinfo id="init_ShelterB_1_91" depart="435.00" departLane="E13_0" departPos="5.10" departSpeed="0.00" departDelay="0.58" arrival="540.00" arrivalLane="E16_0" arrivalPos="108.50" arrivalSpeed="0.85" duration="105.00" routeLength="696.94" waitingTime="0.00" waitingCount="0" stopTime="0.00" timeLoss="46.67" rerouteNo="0" devices="tripinfo_init_ShelterB_1_91" vType="DEFAULT_VEHTYPE" speedFactor="0.89" vaporized="traci"/>
    <tripinfo id="init_ShelterB_1_93" depart="444.00" departLane="E13_0" departPos="5.10" departSpeed="0.00" departDelay="0.50" arrival="540.00" arrivalLane="E16_0" arrivalPos="100.15" arrivalSpeed="0.85" duration="96.00" routeLength="688.59" waitingTime="0.00" waitingCount="0" stopTime="0.00" timeLoss="40.13" rerouteNo="0" devices="tripinfo_init_ShelterB_1_93" vType="DEFAULT_VEHTYPE" speedFactor="0.92" vaporized="traci"/>
    <tripinfo id="init_ShelterB_1_96" depart="458.00" departLane="E13_0" departPos="5.10" departSpeed="0.00" departDelay="0.92" arrival="540.00" arrivalLane="E16_0" arrivalPos="44.28" arrivalSpeed="8.00" duration="82.00" routeLength="632.72" waitingTime="0.00" waitingCount="0" stopTime="0.00" timeLoss="35.36" rerouteNo="0" devices="tripinfo_init_ShelterB_1_96" vType="DEFAULT_VEHTYPE" speedFactor="1.01" vaporized="traci"/>
    <tripinfo id="init_ShelterA_1_285" depart="408.00" departLane="E21_0" departPos="5.10" departSpeed="0.00" departDelay="0.94" arrival="550.00" arrivalLane="E6_0" arrivalPos="157.55" arrivalSpeed="0.86" duration="142.00" routeLength="953.31" waitingTime="0.00" waitingCount="0" stopTime="0.00" timeLoss="74.18" rerouteNo="0" devices="tripinfo_init_ShelterA_1_285" vType="DEFAULT_VEHTYPE" speedFactor="1.04" vaporized="traci"/>
    <tripinfo id="init_ShelterA_1_289" depart="426.00" departLane="E21_0" departPos="5.10" departSpeed="0.00" departDelay="0.68" arrival="550.00" arrivalLane="E6_0" arrivalPos="124.11" arrivalSpeed="0.86" duration="124.00" routeLength="919.87" waitingTime="0.00" waitingCount="0" stopTime="0.00" timeLoss="66.96" rerouteNo="0" devices="tripinfo_init_ShelterA_1_289" vType="DEFAULT_VEHTYPE" speedFactor="1.19" vaporized="traci"/>
    <tripinfo id="init_ShelterA_1_290" depart="430.00" departLane="E21_0" departPos="5.10" departSpeed="0.00" departDelay="0.13" arrival="550.00" arrivalLane="E6_0" arrivalPos="115.75" arrivalSpeed="0.86" duration="120.00" routeLength="911.51" waitingTime="0.00" waitingCount="0" stopTime="0.00" timeLoss="50.60" rerouteNo="0" devices="tripinfo_init_ShelterA_1_290" vType="DEFAULT_VEHTYPE" speedFactor="0.97" vaporized="traci"/>
    <tripinfo id="init_ShelterB_1_101" depart="480.00" departLane="E13_0" departPos="5.10" departSpeed="0.00" departDelay="0.38" arrival="550.00" arrivalLane="E15_0" arrivalPos="139.88" arrivalSpeed="8.00" duration="70.00" routeLength="533.91" waitingTime="0.00" waitingCount="0" stopTime="0.00" timeLoss="27.76" rerouteNo="0" devices="tripinfo_init_ShelterB_1_101" vType="DEFAULT_VEHTYPE" speedFactor="0.96" vaporized="traci"/>
    <tripinfo id="init_ShelterB_1_94" depart="449.00" departLane="E13_0" departPos="5.10" departSpeed="0.00" departDelay="0.97" arrival="560.00" arrivalLane="E16_0" arrivalPos="125.46" arrivalSpeed="0.85" duration="111.00" routeLength="713.90" waitingTime="0.00" waitingCount="0" stopTime="0.00" timeLoss="62.36" rerouteNo="0" devices="tripinfo_init_ShelterB_1_94" vType="DEFAULT_VEHTYPE" speedFactor="1.09" vaporized="traci"/>
    <tripinfo id="init_ShelterB_1_95" depart="453.00" departLane="E13_0" departPos="5.10" departSpeed="0.00" departDelay="0.44" arrival="560.00" arrivalLane="E16_0" arrivalPos="117.12" arrivalSpeed="0.86" duration="107.00" routeLength="705.56" waitingTime="0.00" waitingCount="0" stopTime="0.00" timeLoss="57.40" rerouteNo="0" devices="tripinfo_init_ShelterB_1_95" vType="DEFAULT_VEHTYPE" speedFactor="1.06" vaporized="traci"/>
    <tripinfo id="init_ShelterB_1_97" depart="462.00" departLane="E13_0" departPos="5.10" departSpeed="0.00" departDelay="0.40" arrival="560.00" arrivalLane="E16_0" arrivalPos="108.76" arrivalSpeed="0.85" duration="98.00" routeLength="697.20" waitingTime="0.00" waitingCount="0" stopTime="0.00" timeLoss="40.57" rerouteNo="0" devices="tripinfo_init_ShelterB_1_97" vType="DEFAULT_VEHTYPE" speedFactor="0.91" vaporized="traci"/>
    <tripinfo id="init_ShelterB_1_98" depart="467.00" departLane="E13_0" departPos="5.10" departSpeed="0.00" departDelay="0.88" arrival="560.00" arrivalLane="E16_0" arrivalPos="100.40" arrivalSpeed="0.85" duration="93.00" routeLength="688.84" waitingTime="0.00" waitingCount="0" stopTime="0.00" timeLoss="47.25" rerouteNo="0" devices="tripinfo_init_ShelterB_1_98" vType="DEFAULT_VEHTYPE" speedFactor="1.12" vaporized="traci"/>
    <tripinfo id="init_ShelterB_1_99" depart="471.00" departLane="E13_0" departPos="5.10" departSpeed="0.00" departDelay="0.38" arrival="560.00" arrivalLane="E16_0" arrivalPos="92.05" arrivalSpeed="1.20" duration="89.00" routeLength="680.49" waitingTime="0.00" waitingCount="0" stopTime="0.00" timeLoss="42.82" rerouteNo="0" devices="tripinfo_init_ShelterB_1_99" vType="DEFAULT_VEHTYPE" speedFactor="1.10" vaporized="traci"/>
    <tripinfo id="init_ShelterB_1_106" depart="503.00" departLane="E13_0" departPos="5.10" departSpeed="0.00" departDelay="0.97" arrival="570.00" arrivalLane="E15_0" arrivalPos="118.77" arrivalSpeed="8.00" duration="67.00" routeLength="512.80" waitingTime="0.00" waitingCount="0" stopTime="0.00" timeLoss="29.06" rerouteNo="0" devices="tripinfo_init_ShelterB_1_106" vType="DEFAULT_VEHTYPE" speedFactor="1.01" vaporized="traci"/>
    <tripinfo id="init_ShelterA_1_299" depart="471.00" departLane="E21_0" departPos="5.10" departSpeed="0.00" departDelay="0.38" arrival="580.00" arrivalLane="E5_0" arrivalPos="39.99" arrivalSpeed="8.00" duration="109.00" routeLength="735.65" waitingTime="9.00" waitingCount="2" stopTime="0.00" timeLoss="61.69" rerouteNo="0" devices="tripinfo_init_ShelterA_1_299" vType="DEFAULT_VEHTYPE" speedFactor="1.16" vaporized="traci"/>
    <tripinfo id="init_ShelterB_1_110" depart="520.00" departLane="E13_0" departPos="5.10" departSpeed="0.00" departDelay="0.13" arrival="590.00" arrivalLane="E15_0" arrivalPos="139.13" arrivalSpeed="8.00" duration="70.00" routeLength="533.16" waitingTime="0.00" waitingCount="0" stopTime="0.00" timeLoss="26.56" rerouteNo="0" devices="tripinfo_init_ShelterB_1_110" vType="DEFAULT_VEHTYPE" speedFactor="0.93" vaporized="traci"/>
    <tripinfo id="init_ShelterA_1_297" depart="462.00" departLane="E21_0" departPos="5.10" departSpeed="0.00" departDelay="0.40" arrival="600.00" arrivalLane="E6_0" arrivalPos="150.07" arrivalSpeed="0.85" duration="138.00" routeLength="945.83" waitingTime="0.00" waitingCount="0" stopTime="0.00" timeLoss="67.06" rerouteNo="0" devices="tripinfo_init_ShelterA_1_297" vType="DEFAULT_VEHTYPE" speedFactor="0.98" vaporized="traci"/>
    <tripinfo id="init_ShelterB_1_114" depart="538.00" departLane="E13_0" departPos="5.10" departSpeed="0.00" departDelay="0.37" arrival="600.00" arrivalLane="E15_0" arrivalPos="80.38" arrivalSpeed="8.00" duration="62.00" routeLength="474.41" waitingTime="0.00" waitingCount="0" stopTime="0.00" timeLoss="29.32" rerouteNo="0" devices="tripinfo_init_ShelterB_1_114" vType="DEFAULT_VEHTYPE" speedFactor="1.10" vaporized="traci"/>
    <tripinfo id="init_ShelterA_1_301" depart="480.00" departLane="E21_0" departPos="5.10" departSpeed="0.00" departDelay="0.38" arrival="610.00" arrivalLane="E6_0" arrivalPos="125.16" arrivalSpeed="0.84" duration="130.00" routeLength="920.92" waitingTime="0.00" waitingCount="0" stopTime="0.00" timeLoss="57.58" rerouteNo="0" devices="tripinfo_init_ShelterA_1_301" vType="DEFAULT_VEHTYPE" speedFactor="0.94" vaporized="traci"/>
    <tripinfo id="init_ShelterA_1_317" depart="551.00" departLane="E21_0" departPos="5.10" departSpeed="0.00" departDelay="0.10" arrival="610.00" arrivalLane="-E1_0" arrivalPos="51.15" arrivalSpeed="8.00" duration="59.00" routeLength="453.00" waitingTime="0.00" waitingCount="0" stopTime="0.00" timeLoss="23.85" rerouteNo="0" devices="tripinfo_init_ShelterA_1_317" vType="DEFAULT_VEHTYPE" speedFactor="0.98" vaporized="traci"/>
    <tripinfo id="init_ShelterB_1_109" depart="516.00" departLane="E13_0" departPos="5.10" departSpeed="0.00" departDelay="0.58" arrival="610.00" arrivalLane="E16_0" arrivalPos="117.51" arrivalSpeed="0.85" duration="94.00" routeLength="705.95" waitingTime="0.00" waitingCount="0" stopTime="0.00" timeLoss="38.97" rerouteNo="0" devices="tripinfo_init_ShelterB_1_109" vType="DEFAULT_VEHTYPE" speedFactor="0.96" vaporized="traci"/>
    <tripinfo id="init_ShelterB_1_117" depart="551.00" departLane="E13_0" departPos="5.10" departSpeed="0.00" departDelay="0.10" arrival="610.00" arrivalLane="E15_0" arrivalPos="54.60" arrivalSpeed="7.99" duration="59.00" routeLength="448.63" waitingTime="0.00" waitingCount="0" stopTime="0.00" timeLoss="25.31" rerouteNo="0" devices="tripinfo_init_ShelterB_1_117" vType="DEFAULT_VEHTYPE" speedFactor="1.00" vaporized="traci"/>
    <tripinfo id="init_ShelterA_1_308" depart="511.00" departLane="E21_0" departPos="5.10" departSpeed="0.00" departDelay="0.04" arrival="630.00" arrivalLane="E6_0" arrivalPos="75.32" arrivalSpeed="0.85" duration="119.00" routeLength="871.08" waitingTime="1.00" waitingCount="1" stopTime="0.00" timeLoss="54.08" rerouteNo="0" devices="tripinfo_init_ShelterA_1_308" vType="DEFAULT_VEHTYPE" speedFactor="0.99" vaporized="traci"/>
    <tripinfo id="init_ShelterA_1_309" depart="516.00" departLane="E21_0" departPos="5.10" departSpeed="0.00" departDelay="0.58" arrival="630.00" arrivalLane="E6_0" arrivalPos="66.96" arrivalSpeed="0.85" duration="114.00" routeLength="862.72" waitingTime="0.00" waitingCount="0" stopTime="0.00" timeLoss="53.07" rerouteNo="0" devices="tripinfo_init_ShelterA_1_309" vType="DEFAULT_VEHTYPE" speedFactor="1.05" vaporized="traci"/>
    <tripinfo id="init_ShelterB_1_111" depart="525.00" departLane="E13_0" departPos="5.10" departSpeed="0.00" departDelay="0.68" arrival="630.00" arrivalLane="E16_0" arrivalPos="134.34" arrivalSpeed="0.84" duration="105.00" routeLength="722.78" waitingTime="0.00" waitingCount="0" stopTime="0.00" timeLoss="42.84" rerouteNo="0" devices="tripinfo_init_ShelterB_1_111" vType="DEFAULT_VEHTYPE" speedFactor="0.87" vaporized="traci"/>
    <tripinfo id="init_ShelterB_1_113" depart="534.00" departLane="E13_0" departPos="5.10" departSpeed="0.00" departDelay="0.80" arrival="630.00" arrivalLane="E16_0" arrivalPos="117.66" arrivalSpeed="0.85" duration="96.00" routeLength="706.10" waitingTime="0.00" waitingCount="0" stopTime="0.00" timeLoss="44.09" rerouteNo="0" devices="tripinfo_init_ShelterB_1_113" vType="DEFAULT_VEHTYPE" speedFactor="1.01" vaporized="traci"/>
    <tripinfo id="init_ShelterA_1_304" depart="494.00" departLane="E21_0" departPos="5.10" departSpeed="0.00" departDelay="0.92" arrival="640.00" arrivalLane="E6_0" arrivalPos="100.44" arrivalSpeed="0.85" duration="146.00" routeLength="896.20" waitingTime="15.00" waitingCount="1" stopTime="0.00" timeLoss="78.66" rerouteNo="0" devices="tripinfo_init_ShelterA_1_304" vType="DEFAULT_VEHTYPE" speedFactor="0.98" vaporized="traci"/>
    <tripinfo id="init_ShelterA_1_307" depart="507.00" departLane="E21_0" departPos="5.10" departSpeed="0.00" departDelay="0.50" arrival="640.00" arrivalLane="E6_0" arrivalPos="92.10" arrivalSpeed="0.85" duration="133.00" routeLength="887.86" waitingTime="3.00" waitingCount="1" stopTime="0.00" timeLoss="66.60" rerouteNo="0" devices="tripinfo_init_ShelterA_1_307" vType="DEFAULT_VEHTYPE" speedFactor="0.99" vaporized="traci"/>
    <tripinfo id="init_ShelterA_1_310" depart="520.00" departLane="E21_0" departPos="5.10" departSpeed="0.00" departDelay="0.13" arrival="640.00" arrivalLane="E6_0" arrivalPos="83.75" arrivalSpeed="0.85" duration="120.00" routeLength="879.51" waitingTime="0.00" waitingCount="0" stopTime="0.00" timeLoss="48.17" rerouteNo="0" devices="tripinfo_init_ShelterA_1_310" vType="DEFAULT_VEHTYPE" speedFactor="0.90" vaporized="traci"/>
    <tripinfo id="init_ShelterB_1_116" depart="547.00" departLane="E13_0" departPos="5.10" departSpeed="0.00" departDelay="0.52" arrival="640.00" arrivalLane="E16_0" arrivalPos="126.07" arrivalSpeed="1.43" duration="93.00" routeLength="714.51" waitingTime="0.00" waitingCount="0" stopTime="0.00" timeLoss="47.77" rerouteNo="0" devices="tripinfo_init_ShelterB_1_116" vType="DEFAULT_VEHTYPE" speedFactor="1.18" vaporized="traci"/>
    <tripinfo id="init_ShelterA_1_311" depart="525.00" departLane="E21_0" departPos="5.10" departSpeed="0.00" departDelay="0.68" arrival="650.00" arrivalLane="E6_0" arrivalPos="53.86" arrivalSpeed="7.43" duration="125.00" routeLength="849.62" waitingTime="9.00" waitingCount="2" stopTime="0.00" timeLoss="67.53" rerouteNo="0" devices="tripinfo_init_ShelterA_1_311" vType="DEFAULT_VEHTYPE" speedFactor="1.09" vaporized="traci"/>
    <tripinfo id="init_ShelterA_1_312" depart="529.00" departLane="E21_0" departPos="5.10" departSpeed="0.00" departDelay="0.24" arrival="650.00" arrivalLane="E6_0" arrivalPos="66.49" arrivalSpeed="5.13" duration="121.00" routeLength="862.25" waitingTime="5.00" waitingCount="1" stopTime="0.00" timeLoss="63.66" rerouteNo="0" devices="tripinfo_init_ShelterA_1_312" vType="DEFAULT_VEHTYPE" speedFactor="1.11" vaporized="traci"/>
    <tripinfo id="init_ShelterA_1_315" depart="543.00" departLane="E21_0" departPos="5.10" departSpeed="0.00" departDelay="0.94" arrival="650.00" arrivalLane="E6_0" arrivalPos="38.35" arrivalSpeed="7.44" duration="107.00" routeLength="834.11" waitingTime="0.00" waitingCount="0" stopTime="0.00" timeLoss="53.21" rerouteNo="0" devices="tripinfo_init_ShelterA_1_315" vType="DEFAULT_VEHTYPE" speedFactor="1.15" vaporized="traci"/>
    <tripinfo id="init_ShelterA_1_320" depart="565.00" departLane="E21_0" departPos="5.10" departSpeed="0.00" departDelay="0.88" arrival="650.00" arrivalLane="E24_1" arrivalPos="85.50" arrivalSpeed="0.00" duration="85.00" routeLength="384.90" waitingTime="34.00" waitingCount="1" stopTime="0.00" timeLoss="60.04" rerouteNo="0" devices="tripinfo_init_ShelterA_1_320" vType="DEFAULT_VEHTYPE" speedFactor="1.16" vaporized="traci"/>
    <tripinfo id="init_ShelterB_1_120" depart="565.00" departLane="E13_0" departPos="5.10" departSpeed="0.00" departDelay="0.88" arrival="650.00" arrivalLane="E16_0" arrivalPos="65.08" arrivalSpeed="8.00" duration="85.00" routeLength="653.52" waitingTime="0.00" waitingCount="0" stopTime="0.00" timeLoss="32.97" rerouteNo="0" devices="tripinfo_init_ShelterB_1_120" vType="DEFAULT_VEHTYPE" speedFactor="0.94" vaporized="traci"/>
    <tripinfo id="init_ShelterA_1_316" depart="547.00" departLane="E21_0" departPos="5.10" departSpeed="0.00" departDelay="0.52" arrival="660.00" arrivalLane="E6_0" arrivalPos="75.54" arrivalSpeed="0.85" duration="113.00" routeLength="871.30" waitingTime="0.00" waitingCount="0" stopTime="0.00" timeLoss="55.96" rerouteNo="0" devices="tripinfo_init_ShelterA_1_316" vType="DEFAULT_VEHTYPE" speedFactor="1.13" vaporized="traci"/>
    <tripinfo id="init_ShelterA_1_318" depart="556.00" departLane="E21_0" departPos="5.10" departSpeed="0.00" departDelay="0.69" arrival="660.00" arrivalLane="E6_0" arrivalPos="17.24" arrivalSpeed="8.00" duration="104.00" routeLength="813.00" waitingTime="0.00" waitingCount="0" stopTime="0.00" timeLoss="52.79" rerouteNo="0" devices="tripinfo_init_ShelterA_1_318" vType="DEFAULT_VEHTYPE" speedFactor="1.18" vaporized="traci"/>
    <tripinfo id="init_ShelterA_1_321" depart="569.00" departLane="E21_0" departPos="5.10" departSpeed="0.00" departDelay="0.48" arrival="660.00" arrivalLane="E24_1" arrivalPos="85.50" arrivalSpeed="0.00" duration="91.00" routeLength="384.90" waitingTime="38.00" waitingCount="2" stopTime="0.00" timeLoss="58.29" rerouteNo="0" devices="tripinfo_init_ShelterA_1_321" vType="DEFAULT_VEHTYPE" speedFactor="0.87" vaporized="traci"/>
    <tripinfo id="init_ShelterA_1_322" depart="573.00" departLane="E21_0" departPos="5.10" departSpeed="0.00" departDelay="0.09" arrival="660.00" arrivalLane="E24_1" arrivalPos="78.00" arrivalSpeed="0.00" duration="87.00" routeLength="377.40" waitingTime="34.00" waitingCount="2" stopTime="0.00" timeLoss="54.65" rerouteNo="0" devices="tripinfo_init_ShelterA_1_322" vType="DEFAULT_VEHTYPE" speedFactor="0.87" vaporized="traci"/>
    <tripinfo id="init_ShelterA_1_324" depart="582.00" departLane="E21_0" departPos="5.10" departSpeed="0.00" departDelay="0.32" arrival="660.00" arrivalLane="E24_1" arrivalPos="70.50" arrivalSpeed="0.00" duration="78.00" routeLength="369.90" waitingTime="26.00" waitingCount="2" stopTime="0.00" timeLoss="48.58" rerouteNo="0" devices="tripinfo_init_ShelterA_1_324" vType="DEFAULT_VEHTYPE" speedFactor="0.94" vaporized="traci"/>
    <tripinfo id="init_ShelterA_1_326" depart="591.00" departLane="E21_0" departPos="5.10" departSpeed="0.00" departDelay="0.57" arrival="670.00" arrivalLane="E24_1" arrivalPos="85.50" arrivalSpeed="0.00" duration="79.00" routeLength="384.90" waitingTime="23.00" waitingCount="3" stopTime="0.00" timeLoss="48.06" rerouteNo="0" devices="tripinfo_init_ShelterA_1_326" vType="DEFAULT_VEHTYPE" speedFactor="0.93" vaporized="traci"/>
    <tripinfo id="init_ShelterA_1_327" depart="595.00" departLane="E21_0" departPos="5.10" departSpeed="0.00" departDelay="0.21" arrival="670.00" arrivalLane="E24_1" arrivalPos="78.00" arrivalSpeed="0.00" duration="75.00" routeLength="377.40" waitingTime="20.00" waitingCount="3" stopTime="0.00" timeLoss="45.45" rerouteNo="0" devices="tripinfo_init_ShelterA_1_327" vType="DEFAULT_VEHTYPE" speedFactor="0.95" vaporized="traci"/>
    <tripinfo id="init_ShelterB_1_128" depart="600.00" departLane="E13_0" departPos="5.10" departSpeed="0.00" departDelay="0.84" arrival="670.00" arrivalLane="E15_0" arrivalPos="144.81" arrivalSpeed="8.00" duration="70.00" routeLength="538.84" waitingTime="0.00" waitingCount="0" stopTime="0.00" timeLoss="33.78" rerouteNo="0" devices="tripinfo_init_ShelterB_1_128" vType="DEFAULT_VEHTYPE" speedFactor="1.12" vaporized="traci"/>
    <tripinfo id="init_ShelterA_1_319" depart="560.00" departLane="E21_0" departPos="5.10" departSpeed="0.00" departDelay="0.28" arrival="680.00" arrivalLane="E6_0" arrivalPos="92.38" arrivalSpeed="0.85" duration="120.00" routeLength="888.14" waitingTime="0.00" waitingCount="0" stopTime="0.00" timeLoss="62.01" rerouteNo="0" devices="tripinfo_init_ShelterA_1_319" vType="DEFAULT_VEHTYPE" speedFactor="1.13" vaporized="traci"/>
    <tripinfo id="init_ShelterA_1_329" depart="604.00" departLane="E21_0" departPos="5.10" departSpeed="0.00" departDelay="0.49" arrival="680.00" arrivalLane="E24_1" arrivalPos="85.50" arrivalSpeed="0.00" duration="76.00" routeLength="384.90" waitingTime="18.00" waitingCount="4" stopTime="0.00" timeLoss="44.17" rerouteNo="0" devices="tripinfo_init_ShelterA_1_329" vType="DEFAULT_VEHTYPE" speedFactor="0.90" vaporized="traci"/>
    <tripinfo id="init_ShelterA_1_330" depart="608.00" departLane="E21_0" departPos="5.10" departSpeed="0.00" departDelay="0.14" arrival="680.00" arrivalLane="E24_1" arrivalPos="78.00" arrivalSpeed="0.00" duration="72.00" routeLength="377.40" waitingTime="15.00" waitingCount="4" stopTime="0.00" timeLoss="42.61" rerouteNo="0" devices="tripinfo_init_ShelterA_1_330" vType="DEFAULT_VEHTYPE" speedFactor="0.96" vaporized="traci"/>
    <tripinfo id="init_ShelterB_1_119" depart="560.00" departLane="E13_0" departPos="5.10" departSpeed="0.00" departDelay="0.28" arrival="680.00" arrivalLane="E16_0" arrivalPos="151.10" arrivalSpeed="0.83" duration="120.00" routeLength="739.54" waitingTime="0.00" waitingCount="0" stopTime="0.00" timeLoss="68.75" rerouteNo="0" devices="tripinfo_init_ShelterB_1_119" vType="DEFAULT_VEHTYPE" speedFactor="1.07" vaporized="traci"/>
    <tripinfo id="init_ShelterB_1_122" depart="573.00" departLane="E13_0" departPos="5.10" departSpeed="0.00" departDelay="0.09" arrival="680.00" arrivalLane="E16_0" arrivalPos="134.44" arrivalSpeed="0.83" duration="107.00" routeLength="722.88" waitingTime="0.00" waitingCount="0" stopTime="0.00" timeLoss="55.01" rerouteNo="0" devices="tripinfo_init_ShelterB_1_122" vType="DEFAULT_VEHTYPE" speedFactor="1.03" vaporized="traci"/>
    <tripinfo id="init_ShelterB_1_124" depart="582.00" departLane="E13_0" departPos="5.10" departSpeed="0.00" departDelay="0.32" arrival="680.00" arrivalLane="E16_0" arrivalPos="117.77" arrivalSpeed="0.84" duration="98.00" routeLength="706.21" waitingTime="0.00" waitingCount="0" stopTime="0.00" timeLoss="48.55" rerouteNo="0" devices="tripinfo_init_ShelterB_1_124" vType="DEFAULT_VEHTYPE" speedFactor="1.06" vaporized="traci"/>
    <tripinfo id="init_ShelterB_1_125" depart="587.00" departLane="E13_0" departPos="5.10" departSpeed="0.00" departDelay="0.95" arrival="680.00" arrivalLane="E16_0" arrivalPos="109.42" arrivalSpeed="0.83" duration="93.00" routeLength="697.86" waitingTime="0.00" waitingCount="0" stopTime="0.00" timeLoss="47.89" rerouteNo="0" devices="tripinfo_init_ShelterB_1_125" vType="DEFAULT_VEHTYPE" speedFactor="1.15" vaporized="traci"/>
    <tripinfo id="init_ShelterB_1_131" depart="613.00" departLane="E13_0" departPos="5.10" departSpeed="0.00" departDelay="0.79" arrival="680.00" arrivalLane="E15_0" arrivalPos="119.83" arrivalSpeed="8.00" duration="67.00" routeLength="513.86" waitingTime="0.00" waitingCount="0" stopTime="0.00" timeLoss="30.84" rerouteNo="0" devices="tripinfo_init_ShelterB_1_131" vType="DEFAULT_VEHTYPE" speedFactor="1.07" vaporized="traci"/>
    <tripinfo id="init_ShelterB_1_132" depart="617.00" departLane="E13_0" departPos="5.10" departSpeed="0.00" departDelay="0.45" arrival="680.00" arrivalLane="E15_0" arrivalPos="83.96" arrivalSpeed="8.00" duration="63.00" routeLength="477.99" waitingTime="0.00" waitingCount="0" stopTime="0.00" timeLoss="25.08" rerouteNo="0" devices="tripinfo_init_ShelterB_1_132" vType="DEFAULT_VEHTYPE" speedFactor="0.96" vaporized="traci"/>
    <tripinfo id="init_ShelterA_1_331" depart="613.00" departLane="E21_0" departPos="5.10" departSpeed="0.00" departDelay="0.79" arrival="690.00" arrivalLane="E24_1" arrivalPos="85.50" arrivalSpeed="0.00" duration="77.00" routeLength="384.90" waitingTime="17.00" waitingCount="4" stopTime="0.00" timeLoss="48.89" rerouteNo="0" devices="tripinfo_init_ShelterA_1_331" vType="DEFAULT_VEHTYPE" speedFactor="1.02" vaporized="traci"/>